<?xml version="1.0" encoding="UTF-8"?>

<!-- generated on 2026-07-08 00:42:08 by Eclipse SUMO sumo Version 1.20.0
<configuration xmlns:xsi="http://www.w3.org/2001/XMLSchema-instance" xsi:noNamespaceSchemaLocation="http://sumo.dlr.de/xsd/sumoConfiguration.xsd">

    <input>
        <net-file value="net.net.xml"/>
        <route-files value="rou.rou.xml"/>
    </input>

    <output>
        <precision value="6"/>
        <fcd-output value="golden.ensemble/seed04.fcd.xml"/>
    </output>

    <time>
        <begin value="0"/>
        <end value="80"/>
        <step-length value="1"/>
    </time>

    <processing>
        <step-method.ballistic value="false"/>
        <collision.action value="none"/>
        <time-to-teleport value="-1"/>
        <default.action-step-length value="1"/>
        <default.speeddev value="0"/>
    </processing>

    <report>
        <no-step-log value="true"/>
    </report>

    <random_number>
        <seed value="4"/>
    </random_number>

</configuration>
-->

<fcd-export xmlns:xsi="http://www.w3.org/2001/XMLSchema-instance" xsi:noNamespaceSchemaLocation="http://sumo.dlr.de/xsd/fcd_file.xsd">
    <timestep time="0.000">
        <vehicle id="veh0" x="0.000000" y="-1.600000" angle="90.000000" type="dawdler" speed="0.000000" pos="0.000000" lane="e0_0" slope="0.000000"/>
    </timestep>
    <timestep time="1.000">
        <vehicle id="veh0" x="1.342861" y="-1.600000" angle="90.000000" type="dawdler" speed="1.342861" pos="1.342861" lane="e0_0" slope="0.000000"/>
    </timestep>
    <timestep time="2.000">
        <vehicle id="veh0" x="4.114915" y="-1.600000" angle="90.000000" type="dawdler" speed="2.772053" pos="4.114915" lane="e0_0" slope="0.000000"/>
    </timestep>
    <timestep time="3.000">
        <vehicle id="veh0" x="8.775566" y="-1.600000" angle="90.000000" type="dawdler" speed="4.660651" pos="8.775566" lane="e0_0" slope="0.000000"/>
    </timestep>
    <timestep time="4.000">
        <vehicle id="veh0" x="15.811713" y="-1.600000" angle="90.000000" type="dawdler" speed="7.036147" pos="15.811713" lane="e0_0" slope="0.000000"/>
    </timestep>
    <timestep time="5.000">
        <vehicle id="veh0" x="24.183371" y="-1.600000" angle="90.000000" type="dawdler" speed="8.371658" pos="24.183371" lane="e0_0" slope="0.000000"/>
    </timestep>
    <timestep time="6.000">
        <vehicle id="veh0" x="34.042722" y="-1.600000" angle="90.000000" type="dawdler" speed="9.859351" pos="34.042722" lane="e0_0" slope="0.000000"/>
    </timestep>
    <timestep time="7.000">
        <vehicle id="veh0" x="45.572812" y="-1.600000" angle="90.000000" type="dawdler" speed="11.530090" pos="45.572812" lane="e0_0" slope="0.000000"/>
    </timestep>
    <timestep time="8.000">
        <vehicle id="veh0" x="58.671065" y="-1.600000" angle="90.000000" type="dawdler" speed="13.098254" pos="58.671065" lane="e0_0" slope="0.000000"/>
    </timestep>
    <timestep time="9.000">
        <vehicle id="veh0" x="71.654018" y="-1.600000" angle="90.000000" type="dawdler" speed="12.982953" pos="71.654018" lane="e0_0" slope="0.000000"/>
    </timestep>
    <timestep time="10.000">
        <vehicle id="veh0" x="84.767195" y="-1.600000" angle="90.000000" type="dawdler" speed="13.113177" pos="84.767195" lane="e0_0" slope="0.000000"/>
    </timestep>
    <timestep time="11.000">
        <vehicle id="veh0" x="98.376278" y="-1.600000" angle="90.000000" type="dawdler" speed="13.609084" pos="98.376278" lane="e0_0" slope="0.000000"/>
    </timestep>
    <timestep time="12.000">
        <vehicle id="veh0" x="112.082375" y="-1.600000" angle="90.000000" type="dawdler" speed="13.706097" pos="112.082375" lane="e0_0" slope="0.000000"/>
    </timestep>
    <timestep time="13.000">
        <vehicle id="veh0" x="124.703218" y="-1.600000" angle="90.000000" type="dawdler" speed="12.620843" pos="124.703218" lane="e0_0" slope="0.000000"/>
    </timestep>
    <timestep time="14.000">
        <vehicle id="veh0" x="138.301360" y="-1.600000" angle="90.000000" type="dawdler" speed="13.598142" pos="138.301360" lane="e0_0" slope="0.000000"/>
    </timestep>
    <timestep time="15.000">
        <vehicle id="veh0" x="152.183261" y="-1.600000" angle="90.000000" type="dawdler" speed="13.881901" pos="152.183261" lane="e0_0" slope="0.000000"/>
    </timestep>
    <timestep time="16.000">
        <vehicle id="veh0" x="165.165315" y="-1.600000" angle="90.000000" type="dawdler" speed="12.982054" pos="165.165315" lane="e0_0" slope="0.000000"/>
    </timestep>
    <timestep time="17.000">
        <vehicle id="veh0" x="178.726438" y="-1.600000" angle="90.000000" type="dawdler" speed="13.561123" pos="178.726438" lane="e0_0" slope="0.000000"/>
    </timestep>
    <timestep time="18.000">
        <vehicle id="veh0" x="191.442306" y="-1.600000" angle="90.000000" type="dawdler" speed="12.715868" pos="191.442306" lane="e0_0" slope="0.000000"/>
    </timestep>
    <timestep time="19.000">
        <vehicle id="veh0" x="204.767077" y="-1.600000" angle="90.000000" type="dawdler" speed="13.324771" pos="204.767077" lane="e0_0" slope="0.000000"/>
    </timestep>
    <timestep time="20.000">
        <vehicle id="veh0" x="217.834225" y="-1.600000" angle="90.000000" type="dawdler" speed="13.067148" pos="217.834225" lane="e0_0" slope="0.000000"/>
    </timestep>
    <timestep time="21.000">
        <vehicle id="veh0" x="230.711027" y="-1.600000" angle="90.000000" type="dawdler" speed="12.876802" pos="230.711027" lane="e0_0" slope="0.000000"/>
    </timestep>
    <timestep time="22.000">
        <vehicle id="veh0" x="244.594320" y="-1.600000" angle="90.000000" type="dawdler" speed="13.883293" pos="244.594320" lane="e0_0" slope="0.000000"/>
    </timestep>
    <timestep time="23.000">
        <vehicle id="veh0" x="258.227329" y="-1.600000" angle="90.000000" type="dawdler" speed="13.633009" pos="258.227329" lane="e0_0" slope="0.000000"/>
    </timestep>
    <timestep time="24.000">
        <vehicle id="veh0" x="271.373266" y="-1.600000" angle="90.000000" type="dawdler" speed="13.145937" pos="271.373266" lane="e0_0" slope="0.000000"/>
    </timestep>
    <timestep time="25.000">
        <vehicle id="veh0" x="284.141375" y="-1.600000" angle="90.000000" type="dawdler" speed="12.768109" pos="284.141375" lane="e0_0" slope="0.000000"/>
    </timestep>
    <timestep time="26.000">
        <vehicle id="veh0" x="297.561429" y="-1.600000" angle="90.000000" type="dawdler" speed="13.420055" pos="297.561429" lane="e0_0" slope="0.000000"/>
    </timestep>
    <timestep time="27.000">
        <vehicle id="veh0" x="310.173009" y="-1.600000" angle="90.000000" type="dawdler" speed="12.611579" pos="310.173009" lane="e0_0" slope="0.000000"/>
    </timestep>
    <timestep time="28.000">
        <vehicle id="veh0" x="323.277637" y="-1.600000" angle="90.000000" type="dawdler" speed="13.104628" pos="323.277637" lane="e0_0" slope="0.000000"/>
    </timestep>
    <timestep time="29.000">
        <vehicle id="veh0" x="336.954642" y="-1.600000" angle="90.000000" type="dawdler" speed="13.677005" pos="336.954642" lane="e0_0" slope="0.000000"/>
    </timestep>
    <timestep time="30.000">
        <vehicle id="veh0" x="350.335346" y="-1.600000" angle="90.000000" type="dawdler" speed="13.380704" pos="350.335346" lane="e0_0" slope="0.000000"/>
    </timestep>
    <timestep time="31.000">
        <vehicle id="veh0" x="363.448812" y="-1.600000" angle="90.000000" type="dawdler" speed="13.113466" pos="363.448812" lane="e0_0" slope="0.000000"/>
    </timestep>
    <timestep time="32.000">
        <vehicle id="veh0" x="376.283280" y="-1.600000" angle="90.000000" type="dawdler" speed="12.834468" pos="376.283280" lane="e0_0" slope="0.000000"/>
    </timestep>
    <timestep time="33.000">
        <vehicle id="veh0" x="390.161598" y="-1.600000" angle="90.000000" type="dawdler" speed="13.878318" pos="390.161598" lane="e0_0" slope="0.000000"/>
    </timestep>
    <timestep time="34.000">
        <vehicle id="veh0" x="403.255315" y="-1.600000" angle="90.000000" type="dawdler" speed="13.093717" pos="403.255315" lane="e0_0" slope="0.000000"/>
    </timestep>
    <timestep time="35.000">
        <vehicle id="veh0" x="416.642772" y="-1.600000" angle="90.000000" type="dawdler" speed="13.387457" pos="416.642772" lane="e0_0" slope="0.000000"/>
    </timestep>
    <timestep time="36.000">
        <vehicle id="veh0" x="430.186356" y="-1.600000" angle="90.000000" type="dawdler" speed="13.543584" pos="430.186356" lane="e0_0" slope="0.000000"/>
    </timestep>
    <timestep time="37.000">
        <vehicle id="veh0" x="444.018948" y="-1.600000" angle="90.000000" type="dawdler" speed="13.832592" pos="444.018948" lane="e0_0" slope="0.000000"/>
    </timestep>
    <timestep time="38.000">
        <vehicle id="veh0" x="457.071860" y="-1.600000" angle="90.000000" type="dawdler" speed="13.052911" pos="457.071860" lane="e0_0" slope="0.000000"/>
    </timestep>
    <timestep time="39.000">
        <vehicle id="veh0" x="469.718211" y="-1.600000" angle="90.000000" type="dawdler" speed="12.646351" pos="469.718211" lane="e0_0" slope="0.000000"/>
    </timestep>
    <timestep time="40.000">
        <vehicle id="veh0" x="482.553830" y="-1.600000" angle="90.000000" type="dawdler" speed="12.835619" pos="482.553830" lane="e0_0" slope="0.000000"/>
    </timestep>
    <timestep time="41.000">
        <vehicle id="veh0" x="495.876840" y="-1.600000" angle="90.000000" type="dawdler" speed="13.323009" pos="495.876840" lane="e0_0" slope="0.000000"/>
    </timestep>
    <timestep time="42.000">
        <vehicle id="veh0" x="509.742107" y="-1.600000" angle="90.000000" type="dawdler" speed="13.865268" pos="509.742107" lane="e0_0" slope="0.000000"/>
    </timestep>
    <timestep time="43.000">
        <vehicle id="veh0" x="522.398437" y="-1.600000" angle="90.000000" type="dawdler" speed="12.656330" pos="522.398437" lane="e0_0" slope="0.000000"/>
    </timestep>
    <timestep time="44.000">
        <vehicle id="veh0" x="536.236722" y="-1.600000" angle="90.000000" type="dawdler" speed="13.838286" pos="536.236722" lane="e0_0" slope="0.000000"/>
    </timestep>
    <timestep time="45.000">
        <vehicle id="veh0" x="549.104525" y="-1.600000" angle="90.000000" type="dawdler" speed="12.867802" pos="549.104525" lane="e0_0" slope="0.000000"/>
    </timestep>
    <timestep time="46.000">
        <vehicle id="veh0" x="561.766020" y="-1.600000" angle="90.000000" type="dawdler" speed="12.661495" pos="561.766020" lane="e0_0" slope="0.000000"/>
    </timestep>
    <timestep time="47.000">
        <vehicle id="veh0" x="574.529844" y="-1.600000" angle="90.000000" type="dawdler" speed="12.763824" pos="574.529844" lane="e0_0" slope="0.000000"/>
    </timestep>
    <timestep time="48.000">
        <vehicle id="veh0" x="587.839590" y="-1.600000" angle="90.000000" type="dawdler" speed="13.309746" pos="587.839590" lane="e0_0" slope="0.000000"/>
    </timestep>
    <timestep time="49.000">
        <vehicle id="veh0" x="601.504475" y="-1.600000" angle="90.000000" type="dawdler" speed="13.664885" pos="601.504475" lane="e0_0" slope="0.000000"/>
    </timestep>
    <timestep time="50.000">
        <vehicle id="veh0" x="614.820722" y="-1.600000" angle="90.000000" type="dawdler" speed="13.316247" pos="614.820722" lane="e0_0" slope="0.000000"/>
    </timestep>
    <timestep time="51.000">
        <vehicle id="veh0" x="628.613288" y="-1.600000" angle="90.000000" type="dawdler" speed="13.792567" pos="628.613288" lane="e0_0" slope="0.000000"/>
    </timestep>
    <timestep time="52.000">
        <vehicle id="veh0" x="642.417866" y="-1.600000" angle="90.000000" type="dawdler" speed="13.804578" pos="642.417866" lane="e0_0" slope="0.000000"/>
    </timestep>
    <timestep time="53.000">
        <vehicle id="veh0" x="655.526900" y="-1.600000" angle="90.000000" type="dawdler" speed="13.109034" pos="655.526900" lane="e0_0" slope="0.000000"/>
    </timestep>
    <timestep time="54.000">
        <vehicle id="veh0" x="669.188281" y="-1.600000" angle="90.000000" type="dawdler" speed="13.661380" pos="669.188281" lane="e0_0" slope="0.000000"/>
    </timestep>
    <timestep time="55.000">
        <vehicle id="veh0" x="682.859917" y="-1.600000" angle="90.000000" type="dawdler" speed="13.671636" pos="682.859917" lane="e0_0" slope="0.000000"/>
    </timestep>
    <timestep time="56.000">
        <vehicle id="veh0" x="695.624269" y="-1.600000" angle="90.000000" type="dawdler" speed="12.764352" pos="695.624269" lane="e0_0" slope="0.000000"/>
    </timestep>
    <timestep time="57.000">
        <vehicle id="veh0" x="708.560875" y="-1.600000" angle="90.000000" type="dawdler" speed="12.936606" pos="708.560875" lane="e0_0" slope="0.000000"/>
    </timestep>
    <timestep time="58.000">
        <vehicle id="veh0" x="721.354289" y="-1.600000" angle="90.000000" type="dawdler" speed="12.793413" pos="721.354289" lane="e0_0" slope="0.000000"/>
    </timestep>
    <timestep time="59.000">
        <vehicle id="veh0" x="734.713312" y="-1.600000" angle="90.000000" type="dawdler" speed="13.359023" pos="734.713312" lane="e0_0" slope="0.000000"/>
    </timestep>
    <timestep time="60.000">
        <vehicle id="veh0" x="747.400612" y="-1.600000" angle="90.000000" type="dawdler" speed="12.687301" pos="747.400612" lane="e0_0" slope="0.000000"/>
    </timestep>
    <timestep time="61.000">
        <vehicle id="veh0" x="760.604331" y="-1.600000" angle="90.000000" type="dawdler" speed="13.203719" pos="760.604331" lane="e0_0" slope="0.000000"/>
    </timestep>
    <timestep time="62.000">
        <vehicle id="veh0" x="773.362933" y="-1.600000" angle="90.000000" type="dawdler" speed="12.758602" pos="773.362933" lane="e0_0" slope="0.000000"/>
    </timestep>
    <timestep time="63.000">
        <vehicle id="veh0" x="786.034090" y="-1.600000" angle="90.000000" type="dawdler" speed="12.671157" pos="786.034090" lane="e0_0" slope="0.000000"/>
    </timestep>
    <timestep time="64.000">
        <vehicle id="veh0" x="798.838256" y="-1.600000" angle="90.000000" type="dawdler" speed="12.804166" pos="798.838256" lane="e0_0" slope="0.000000"/>
    </timestep>
    <timestep time="65.000">
        <vehicle id="veh0" x="812.050051" y="-1.600000" angle="90.000000" type="dawdler" speed="13.211795" pos="812.050051" lane="e0_0" slope="0.000000"/>
    </timestep>
    <timestep time="66.000">
        <vehicle id="veh0" x="825.600787" y="-1.600000" angle="90.000000" type="dawdler" speed="13.550736" pos="825.600787" lane="e0_0" slope="0.000000"/>
    </timestep>
    <timestep time="67.000">
        <vehicle id="veh0" x="839.350136" y="-1.600000" angle="90.000000" type="dawdler" speed="13.749349" pos="839.350136" lane="e0_0" slope="0.000000"/>
    </timestep>
    <timestep time="68.000">
        <vehicle id="veh0" x="853.193650" y="-1.600000" angle="90.000000" type="dawdler" speed="13.843514" pos="853.193650" lane="e0_0" slope="0.000000"/>
    </timestep>
    <timestep time="69.000">
        <vehicle id="veh0" x="866.877960" y="-1.600000" angle="90.000000" type="dawdler" speed="13.684310" pos="866.877960" lane="e0_0" slope="0.000000"/>
    </timestep>
    <timestep time="70.000">
        <vehicle id="veh0" x="880.470568" y="-1.600000" angle="90.000000" type="dawdler" speed="13.592609" pos="880.470568" lane="e0_0" slope="0.000000"/>
    </timestep>
    <timestep time="71.000">
        <vehicle id="veh0" x="893.651805" y="-1.600000" angle="90.000000" type="dawdler" speed="13.181237" pos="893.651805" lane="e0_0" slope="0.000000"/>
    </timestep>
    <timestep time="72.000">
        <vehicle id="veh0" x="907.267270" y="-1.600000" angle="90.000000" type="dawdler" speed="13.615465" pos="907.267270" lane="e0_0" slope="0.000000"/>
    </timestep>
    <timestep time="73.000">
        <vehicle id="veh0" x="920.475545" y="-1.600000" angle="90.000000" type="dawdler" speed="13.208275" pos="920.475545" lane="e0_0" slope="0.000000"/>
    </timestep>
    <timestep time="74.000">
        <vehicle id="veh0" x="934.130608" y="-1.600000" angle="90.000000" type="dawdler" speed="13.655063" pos="934.130608" lane="e0_0" slope="0.000000"/>
    </timestep>
    <timestep time="75.000">
        <vehicle id="veh0" x="947.191715" y="-1.600000" angle="90.000000" type="dawdler" speed="13.061107" pos="947.191715" lane="e0_0" slope="0.000000"/>
    </timestep>
    <timestep time="76.000">
        <vehicle id="veh0" x="960.670764" y="-1.600000" angle="90.000000" type="dawdler" speed="13.479049" pos="960.670764" lane="e0_0" slope="0.000000"/>
    </timestep>
    <timestep time="77.000">
        <vehicle id="veh0" x="974.038819" y="-1.600000" angle="90.000000" type="dawdler" speed="13.368056" pos="974.038819" lane="e0_0" slope="0.000000"/>
    </timestep>
    <timestep time="78.000">
        <vehicle id="veh0" x="987.615469" y="-1.600000" angle="90.000000" type="dawdler" speed="13.576650" pos="987.615469" lane="e0_0" slope="0.000000"/>
    </timestep>
    <timestep time="79.000">
        <vehicle id="veh0" x="1000.660723" y="-1.600000" angle="90.000000" type="dawdler" speed="13.045253" pos="1000.660723" lane="e0_0" slope="0.000000"/>
    </timestep>
</fcd-export>
