<?xml version="1.0" encoding="UTF-8"?>

<!-- generated on 2026-07-08 00:42:09 by Eclipse SUMO sumo Version 1.20.0
<configuration xmlns:xsi="http://www.w3.org/2001/XMLSchema-instance" xsi:noNamespaceSchemaLocation="http://sumo.dlr.de/xsd/sumoConfiguration.xsd">

    <input>
        <net-file value="net.net.xml"/>
        <route-files value="rou.rou.xml"/>
    </input>

    <output>
        <precision value="6"/>
        <fcd-output value="golden.ensemble/seed24.fcd.xml"/>
    </output>

    <time>
        <begin value="0"/>
        <end value="80"/>
        <step-length value="1"/>
    </time>

    <processing>
        <step-method.ballistic value="false"/>
        <collision.action value="none"/>
        <time-to-teleport value="-1"/>
        <default.action-step-length value="1"/>
        <default.speeddev value="0"/>
    </processing>

    <report>
        <no-step-log value="true"/>
    </report>

    <random_number>
        <seed value="24"/>
    </random_number>

</configuration>
-->

<fcd-export xmlns:xsi="http://www.w3.org/2001/XMLSchema-instance" xsi:noNamespaceSchemaLocation="http://sumo.dlr.de/xsd/fcd_file.xsd">
    <timestep time="0.000">
        <vehicle id="veh0" x="0.000000" y="-1.600000" angle="90.000000" type="dawdler" speed="0.000000" pos="0.000000" lane="e0_0" slope="0.000000"/>
    </timestep>
    <timestep time="1.000">
        <vehicle id="veh0" x="1.351978" y="-1.600000" angle="90.000000" type="dawdler" speed="1.351978" pos="1.351978" lane="e0_0" slope="0.000000"/>
    </timestep>
    <timestep time="2.000">
        <vehicle id="veh0" x="4.921191" y="-1.600000" angle="90.000000" type="dawdler" speed="3.569214" pos="4.921191" lane="e0_0" slope="0.000000"/>
    </timestep>
    <timestep time="3.000">
        <vehicle id="veh0" x="10.181039" y="-1.600000" angle="90.000000" type="dawdler" speed="5.259848" pos="10.181039" lane="e0_0" slope="0.000000"/>
    </timestep>
    <timestep time="4.000">
        <vehicle id="veh0" x="17.972176" y="-1.600000" angle="90.000000" type="dawdler" speed="7.791137" pos="17.972176" lane="e0_0" slope="0.000000"/>
    </timestep>
    <timestep time="5.000">
        <vehicle id="veh0" x="27.063485" y="-1.600000" angle="90.000000" type="dawdler" speed="9.091309" pos="27.063485" lane="e0_0" slope="0.000000"/>
    </timestep>
    <timestep time="6.000">
        <vehicle id="veh0" x="38.342060" y="-1.600000" angle="90.000000" type="dawdler" speed="11.278575" pos="38.342060" lane="e0_0" slope="0.000000"/>
    </timestep>
    <timestep time="7.000">
        <vehicle id="veh0" x="51.934547" y="-1.600000" angle="90.000000" type="dawdler" speed="13.592487" pos="51.934547" lane="e0_0" slope="0.000000"/>
    </timestep>
    <timestep time="8.000">
        <vehicle id="veh0" x="64.545413" y="-1.600000" angle="90.000000" type="dawdler" speed="12.610866" pos="64.545413" lane="e0_0" slope="0.000000"/>
    </timestep>
    <timestep time="9.000">
        <vehicle id="veh0" x="77.966040" y="-1.600000" angle="90.000000" type="dawdler" speed="13.420627" pos="77.966040" lane="e0_0" slope="0.000000"/>
    </timestep>
    <timestep time="10.000">
        <vehicle id="veh0" x="91.194314" y="-1.600000" angle="90.000000" type="dawdler" speed="13.228274" pos="91.194314" lane="e0_0" slope="0.000000"/>
    </timestep>
    <timestep time="11.000">
        <vehicle id="veh0" x="104.122521" y="-1.600000" angle="90.000000" type="dawdler" speed="12.928207" pos="104.122521" lane="e0_0" slope="0.000000"/>
    </timestep>
    <timestep time="12.000">
        <vehicle id="veh0" x="116.989186" y="-1.600000" angle="90.000000" type="dawdler" speed="12.866665" pos="116.989186" lane="e0_0" slope="0.000000"/>
    </timestep>
    <timestep time="13.000">
        <vehicle id="veh0" x="129.583793" y="-1.600000" angle="90.000000" type="dawdler" speed="12.594608" pos="129.583793" lane="e0_0" slope="0.000000"/>
    </timestep>
    <timestep time="14.000">
        <vehicle id="veh0" x="142.857527" y="-1.600000" angle="90.000000" type="dawdler" speed="13.273733" pos="142.857527" lane="e0_0" slope="0.000000"/>
    </timestep>
    <timestep time="15.000">
        <vehicle id="veh0" x="156.336276" y="-1.600000" angle="90.000000" type="dawdler" speed="13.478749" pos="156.336276" lane="e0_0" slope="0.000000"/>
    </timestep>
    <timestep time="16.000">
        <vehicle id="veh0" x="169.421937" y="-1.600000" angle="90.000000" type="dawdler" speed="13.085661" pos="169.421937" lane="e0_0" slope="0.000000"/>
    </timestep>
    <timestep time="17.000">
        <vehicle id="veh0" x="183.134429" y="-1.600000" angle="90.000000" type="dawdler" speed="13.712492" pos="183.134429" lane="e0_0" slope="0.000000"/>
    </timestep>
    <timestep time="18.000">
        <vehicle id="veh0" x="196.667413" y="-1.600000" angle="90.000000" type="dawdler" speed="13.532983" pos="196.667413" lane="e0_0" slope="0.000000"/>
    </timestep>
    <timestep time="19.000">
        <vehicle id="veh0" x="210.058239" y="-1.600000" angle="90.000000" type="dawdler" speed="13.390826" pos="210.058239" lane="e0_0" slope="0.000000"/>
    </timestep>
    <timestep time="20.000">
        <vehicle id="veh0" x="223.220285" y="-1.600000" angle="90.000000" type="dawdler" speed="13.162046" pos="223.220285" lane="e0_0" slope="0.000000"/>
    </timestep>
    <timestep time="21.000">
        <vehicle id="veh0" x="236.693610" y="-1.600000" angle="90.000000" type="dawdler" speed="13.473325" pos="236.693610" lane="e0_0" slope="0.000000"/>
    </timestep>
    <timestep time="22.000">
        <vehicle id="veh0" x="250.557209" y="-1.600000" angle="90.000000" type="dawdler" speed="13.863600" pos="250.557209" lane="e0_0" slope="0.000000"/>
    </timestep>
    <timestep time="23.000">
        <vehicle id="veh0" x="263.970870" y="-1.600000" angle="90.000000" type="dawdler" speed="13.413661" pos="263.970870" lane="e0_0" slope="0.000000"/>
    </timestep>
    <timestep time="24.000">
        <vehicle id="veh0" x="276.996955" y="-1.600000" angle="90.000000" type="dawdler" speed="13.026084" pos="276.996955" lane="e0_0" slope="0.000000"/>
    </timestep>
    <timestep time="25.000">
        <vehicle id="veh0" x="289.964408" y="-1.600000" angle="90.000000" type="dawdler" speed="12.967453" pos="289.964408" lane="e0_0" slope="0.000000"/>
    </timestep>
    <timestep time="26.000">
        <vehicle id="veh0" x="303.331511" y="-1.600000" angle="90.000000" type="dawdler" speed="13.367103" pos="303.331511" lane="e0_0" slope="0.000000"/>
    </timestep>
    <timestep time="27.000">
        <vehicle id="veh0" x="316.051326" y="-1.600000" angle="90.000000" type="dawdler" speed="12.719815" pos="316.051326" lane="e0_0" slope="0.000000"/>
    </timestep>
    <timestep time="28.000">
        <vehicle id="veh0" x="328.769707" y="-1.600000" angle="90.000000" type="dawdler" speed="12.718381" pos="328.769707" lane="e0_0" slope="0.000000"/>
    </timestep>
    <timestep time="29.000">
        <vehicle id="veh0" x="341.965357" y="-1.600000" angle="90.000000" type="dawdler" speed="13.195650" pos="341.965357" lane="e0_0" slope="0.000000"/>
    </timestep>
    <timestep time="30.000">
        <vehicle id="veh0" x="354.894865" y="-1.600000" angle="90.000000" type="dawdler" speed="12.929508" pos="354.894865" lane="e0_0" slope="0.000000"/>
    </timestep>
    <timestep time="31.000">
        <vehicle id="veh0" x="368.463383" y="-1.600000" angle="90.000000" type="dawdler" speed="13.568518" pos="368.463383" lane="e0_0" slope="0.000000"/>
    </timestep>
    <timestep time="32.000">
        <vehicle id="veh0" x="381.996170" y="-1.600000" angle="90.000000" type="dawdler" speed="13.532787" pos="381.996170" lane="e0_0" slope="0.000000"/>
    </timestep>
    <timestep time="33.000">
        <vehicle id="veh0" x="395.012822" y="-1.600000" angle="90.000000" type="dawdler" speed="13.016651" pos="395.012822" lane="e0_0" slope="0.000000"/>
    </timestep>
    <timestep time="34.000">
        <vehicle id="veh0" x="408.272861" y="-1.600000" angle="90.000000" type="dawdler" speed="13.260040" pos="408.272861" lane="e0_0" slope="0.000000"/>
    </timestep>
    <timestep time="35.000">
        <vehicle id="veh0" x="421.432613" y="-1.600000" angle="90.000000" type="dawdler" speed="13.159752" pos="421.432613" lane="e0_0" slope="0.000000"/>
    </timestep>
    <timestep time="36.000">
        <vehicle id="veh0" x="434.627065" y="-1.600000" angle="90.000000" type="dawdler" speed="13.194451" pos="434.627065" lane="e0_0" slope="0.000000"/>
    </timestep>
    <timestep time="37.000">
        <vehicle id="veh0" x="447.811737" y="-1.600000" angle="90.000000" type="dawdler" speed="13.184672" pos="447.811737" lane="e0_0" slope="0.000000"/>
    </timestep>
    <timestep time="38.000">
        <vehicle id="veh0" x="460.459053" y="-1.600000" angle="90.000000" type="dawdler" speed="12.647316" pos="460.459053" lane="e0_0" slope="0.000000"/>
    </timestep>
    <timestep time="39.000">
        <vehicle id="veh0" x="473.187571" y="-1.600000" angle="90.000000" type="dawdler" speed="12.728518" pos="473.187571" lane="e0_0" slope="0.000000"/>
    </timestep>
    <timestep time="40.000">
        <vehicle id="veh0" x="486.486105" y="-1.600000" angle="90.000000" type="dawdler" speed="13.298534" pos="486.486105" lane="e0_0" slope="0.000000"/>
    </timestep>
    <timestep time="41.000">
        <vehicle id="veh0" x="499.280492" y="-1.600000" angle="90.000000" type="dawdler" speed="12.794387" pos="499.280492" lane="e0_0" slope="0.000000"/>
    </timestep>
    <timestep time="42.000">
        <vehicle id="veh0" x="512.718763" y="-1.600000" angle="90.000000" type="dawdler" speed="13.438271" pos="512.718763" lane="e0_0" slope="0.000000"/>
    </timestep>
    <timestep time="43.000">
        <vehicle id="veh0" x="526.210947" y="-1.600000" angle="90.000000" type="dawdler" speed="13.492184" pos="526.210947" lane="e0_0" slope="0.000000"/>
    </timestep>
    <timestep time="44.000">
        <vehicle id="veh0" x="539.369783" y="-1.600000" angle="90.000000" type="dawdler" speed="13.158836" pos="539.369783" lane="e0_0" slope="0.000000"/>
    </timestep>
    <timestep time="45.000">
        <vehicle id="veh0" x="552.439262" y="-1.600000" angle="90.000000" type="dawdler" speed="13.069479" pos="552.439262" lane="e0_0" slope="0.000000"/>
    </timestep>
    <timestep time="46.000">
        <vehicle id="veh0" x="565.663269" y="-1.600000" angle="90.000000" type="dawdler" speed="13.224007" pos="565.663269" lane="e0_0" slope="0.000000"/>
    </timestep>
    <timestep time="47.000">
        <vehicle id="veh0" x="578.668959" y="-1.600000" angle="90.000000" type="dawdler" speed="13.005689" pos="578.668959" lane="e0_0" slope="0.000000"/>
    </timestep>
    <timestep time="48.000">
        <vehicle id="veh0" x="592.108649" y="-1.600000" angle="90.000000" type="dawdler" speed="13.439690" pos="592.108649" lane="e0_0" slope="0.000000"/>
    </timestep>
    <timestep time="49.000">
        <vehicle id="veh0" x="604.737093" y="-1.600000" angle="90.000000" type="dawdler" speed="12.628444" pos="604.737093" lane="e0_0" slope="0.000000"/>
    </timestep>
    <timestep time="50.000">
        <vehicle id="veh0" x="618.178798" y="-1.600000" angle="90.000000" type="dawdler" speed="13.441704" pos="618.178798" lane="e0_0" slope="0.000000"/>
    </timestep>
    <timestep time="51.000">
        <vehicle id="veh0" x="630.907160" y="-1.600000" angle="90.000000" type="dawdler" speed="12.728363" pos="630.907160" lane="e0_0" slope="0.000000"/>
    </timestep>
    <timestep time="52.000">
        <vehicle id="veh0" x="643.567054" y="-1.600000" angle="90.000000" type="dawdler" speed="12.659894" pos="643.567054" lane="e0_0" slope="0.000000"/>
    </timestep>
    <timestep time="53.000">
        <vehicle id="veh0" x="656.231901" y="-1.600000" angle="90.000000" type="dawdler" speed="12.664846" pos="656.231901" lane="e0_0" slope="0.000000"/>
    </timestep>
    <timestep time="54.000">
        <vehicle id="veh0" x="668.925528" y="-1.600000" angle="90.000000" type="dawdler" speed="12.693627" pos="668.925528" lane="e0_0" slope="0.000000"/>
    </timestep>
    <timestep time="55.000">
        <vehicle id="veh0" x="681.980635" y="-1.600000" angle="90.000000" type="dawdler" speed="13.055107" pos="681.980635" lane="e0_0" slope="0.000000"/>
    </timestep>
    <timestep time="56.000">
        <vehicle id="veh0" x="694.631176" y="-1.600000" angle="90.000000" type="dawdler" speed="12.650541" pos="694.631176" lane="e0_0" slope="0.000000"/>
    </timestep>
    <timestep time="57.000">
        <vehicle id="veh0" x="707.722134" y="-1.600000" angle="90.000000" type="dawdler" speed="13.090958" pos="707.722134" lane="e0_0" slope="0.000000"/>
    </timestep>
    <timestep time="58.000">
        <vehicle id="veh0" x="720.396815" y="-1.600000" angle="90.000000" type="dawdler" speed="12.674681" pos="720.396815" lane="e0_0" slope="0.000000"/>
    </timestep>
    <timestep time="59.000">
        <vehicle id="veh0" x="733.990827" y="-1.600000" angle="90.000000" type="dawdler" speed="13.594012" pos="733.990827" lane="e0_0" slope="0.000000"/>
    </timestep>
    <timestep time="60.000">
        <vehicle id="veh0" x="747.739202" y="-1.600000" angle="90.000000" type="dawdler" speed="13.748375" pos="747.739202" lane="e0_0" slope="0.000000"/>
    </timestep>
    <timestep time="61.000">
        <vehicle id="veh0" x="760.997360" y="-1.600000" angle="90.000000" type="dawdler" speed="13.258159" pos="760.997360" lane="e0_0" slope="0.000000"/>
    </timestep>
    <timestep time="62.000">
        <vehicle id="veh0" x="774.642622" y="-1.600000" angle="90.000000" type="dawdler" speed="13.645262" pos="774.642622" lane="e0_0" slope="0.000000"/>
    </timestep>
    <timestep time="63.000">
        <vehicle id="veh0" x="787.483237" y="-1.600000" angle="90.000000" type="dawdler" speed="12.840615" pos="787.483237" lane="e0_0" slope="0.000000"/>
    </timestep>
    <timestep time="64.000">
        <vehicle id="veh0" x="800.903073" y="-1.600000" angle="90.000000" type="dawdler" speed="13.419836" pos="800.903073" lane="e0_0" slope="0.000000"/>
    </timestep>
    <timestep time="65.000">
        <vehicle id="veh0" x="813.695587" y="-1.600000" angle="90.000000" type="dawdler" speed="12.792514" pos="813.695587" lane="e0_0" slope="0.000000"/>
    </timestep>
    <timestep time="66.000">
        <vehicle id="veh0" x="826.366729" y="-1.600000" angle="90.000000" type="dawdler" speed="12.671142" pos="826.366729" lane="e0_0" slope="0.000000"/>
    </timestep>
    <timestep time="67.000">
        <vehicle id="veh0" x="839.561644" y="-1.600000" angle="90.000000" type="dawdler" speed="13.194915" pos="839.561644" lane="e0_0" slope="0.000000"/>
    </timestep>
    <timestep time="68.000">
        <vehicle id="veh0" x="853.360050" y="-1.600000" angle="90.000000" type="dawdler" speed="13.798406" pos="853.360050" lane="e0_0" slope="0.000000"/>
    </timestep>
    <timestep time="69.000">
        <vehicle id="veh0" x="866.264913" y="-1.600000" angle="90.000000" type="dawdler" speed="12.904863" pos="866.264913" lane="e0_0" slope="0.000000"/>
    </timestep>
    <timestep time="70.000">
        <vehicle id="veh0" x="879.460331" y="-1.600000" angle="90.000000" type="dawdler" speed="13.195418" pos="879.460331" lane="e0_0" slope="0.000000"/>
    </timestep>
    <timestep time="71.000">
        <vehicle id="veh0" x="892.700751" y="-1.600000" angle="90.000000" type="dawdler" speed="13.240420" pos="892.700751" lane="e0_0" slope="0.000000"/>
    </timestep>
    <timestep time="72.000">
        <vehicle id="veh0" x="906.087687" y="-1.600000" angle="90.000000" type="dawdler" speed="13.386936" pos="906.087687" lane="e0_0" slope="0.000000"/>
    </timestep>
    <timestep time="73.000">
        <vehicle id="veh0" x="918.872261" y="-1.600000" angle="90.000000" type="dawdler" speed="12.784574" pos="918.872261" lane="e0_0" slope="0.000000"/>
    </timestep>
    <timestep time="74.000">
        <vehicle id="veh0" x="932.325468" y="-1.600000" angle="90.000000" type="dawdler" speed="13.453207" pos="932.325468" lane="e0_0" slope="0.000000"/>
    </timestep>
    <timestep time="75.000">
        <vehicle id="veh0" x="945.409862" y="-1.600000" angle="90.000000" type="dawdler" speed="13.084394" pos="945.409862" lane="e0_0" slope="0.000000"/>
    </timestep>
    <timestep time="76.000">
        <vehicle id="veh0" x="958.991478" y="-1.600000" angle="90.000000" type="dawdler" speed="13.581616" pos="958.991478" lane="e0_0" slope="0.000000"/>
    </timestep>
    <timestep time="77.000">
        <vehicle id="veh0" x="971.761380" y="-1.600000" angle="90.000000" type="dawdler" speed="12.769902" pos="971.761380" lane="e0_0" slope="0.000000"/>
    </timestep>
    <timestep time="78.000">
        <vehicle id="veh0" x="984.969281" y="-1.600000" angle="90.000000" type="dawdler" speed="13.207901" pos="984.969281" lane="e0_0" slope="0.000000"/>
    </timestep>
    <timestep time="79.000">
        <vehicle id="veh0" x="998.558074" y="-1.600000" angle="90.000000" type="dawdler" speed="13.588794" pos="998.558074" lane="e0_0" slope="0.000000"/>
    </timestep>
</fcd-export>
