<?xml version="1.0" encoding="UTF-8"?>

<!-- generated on 2026-07-08 00:42:08 by Eclipse SUMO sumo Version 1.20.0
<configuration xmlns:xsi="http://www.w3.org/2001/XMLSchema-instance" xsi:noNamespaceSchemaLocation="http://sumo.dlr.de/xsd/sumoConfiguration.xsd">

    <input>
        <net-file value="net.net.xml"/>
        <route-files value="rou.rou.xml"/>
    </input>

    <output>
        <precision value="6"/>
        <fcd-output value="golden.ensemble/seed18.fcd.xml"/>
    </output>

    <time>
        <begin value="0"/>
        <end value="80"/>
        <step-length value="1"/>
    </time>

    <processing>
        <step-method.ballistic value="false"/>
        <collision.action value="none"/>
        <time-to-teleport value="-1"/>
        <default.action-step-length value="1"/>
        <default.speeddev value="0"/>
    </processing>

    <report>
        <no-step-log value="true"/>
    </report>

    <random_number>
        <seed value="18"/>
    </random_number>

</configuration>
-->

<fcd-export xmlns:xsi="http://www.w3.org/2001/XMLSchema-instance" xsi:noNamespaceSchemaLocation="http://sumo.dlr.de/xsd/fcd_file.xsd">
    <timestep time="0.000">
        <vehicle id="veh0" x="0.000000" y="-1.600000" angle="90.000000" type="dawdler" speed="0.000000" pos="0.000000" lane="e0_0" slope="0.000000"/>
    </timestep>
    <timestep time="1.000">
        <vehicle id="veh0" x="1.754513" y="-1.600000" angle="90.000000" type="dawdler" speed="1.754513" pos="1.754513" lane="e0_0" slope="0.000000"/>
    </timestep>
    <timestep time="2.000">
        <vehicle id="veh0" x="6.010213" y="-1.600000" angle="90.000000" type="dawdler" speed="4.255699" pos="6.010213" lane="e0_0" slope="0.000000"/>
    </timestep>
    <timestep time="3.000">
        <vehicle id="veh0" x="12.208823" y="-1.600000" angle="90.000000" type="dawdler" speed="6.198610" pos="12.208823" lane="e0_0" slope="0.000000"/>
    </timestep>
    <timestep time="4.000">
        <vehicle id="veh0" x="20.445020" y="-1.600000" angle="90.000000" type="dawdler" speed="8.236197" pos="20.445020" lane="e0_0" slope="0.000000"/>
    </timestep>
    <timestep time="5.000">
        <vehicle id="veh0" x="30.139035" y="-1.600000" angle="90.000000" type="dawdler" speed="9.694015" pos="30.139035" lane="e0_0" slope="0.000000"/>
    </timestep>
    <timestep time="6.000">
        <vehicle id="veh0" x="42.115137" y="-1.600000" angle="90.000000" type="dawdler" speed="11.976102" pos="42.115137" lane="e0_0" slope="0.000000"/>
    </timestep>
    <timestep time="7.000">
        <vehicle id="veh0" x="55.768744" y="-1.600000" angle="90.000000" type="dawdler" speed="13.653608" pos="55.768744" lane="e0_0" slope="0.000000"/>
    </timestep>
    <timestep time="8.000">
        <vehicle id="veh0" x="68.477856" y="-1.600000" angle="90.000000" type="dawdler" speed="12.709112" pos="68.477856" lane="e0_0" slope="0.000000"/>
    </timestep>
    <timestep time="9.000">
        <vehicle id="veh0" x="81.259954" y="-1.600000" angle="90.000000" type="dawdler" speed="12.782097" pos="81.259954" lane="e0_0" slope="0.000000"/>
    </timestep>
    <timestep time="10.000">
        <vehicle id="veh0" x="94.884789" y="-1.600000" angle="90.000000" type="dawdler" speed="13.624836" pos="94.884789" lane="e0_0" slope="0.000000"/>
    </timestep>
    <timestep time="11.000">
        <vehicle id="veh0" x="107.799612" y="-1.600000" angle="90.000000" type="dawdler" speed="12.914823" pos="107.799612" lane="e0_0" slope="0.000000"/>
    </timestep>
    <timestep time="12.000">
        <vehicle id="veh0" x="121.674653" y="-1.600000" angle="90.000000" type="dawdler" speed="13.875041" pos="121.674653" lane="e0_0" slope="0.000000"/>
    </timestep>
    <timestep time="13.000">
        <vehicle id="veh0" x="134.698721" y="-1.600000" angle="90.000000" type="dawdler" speed="13.024068" pos="134.698721" lane="e0_0" slope="0.000000"/>
    </timestep>
    <timestep time="14.000">
        <vehicle id="veh0" x="148.033762" y="-1.600000" angle="90.000000" type="dawdler" speed="13.335041" pos="148.033762" lane="e0_0" slope="0.000000"/>
    </timestep>
    <timestep time="15.000">
        <vehicle id="veh0" x="160.639498" y="-1.600000" angle="90.000000" type="dawdler" speed="12.605736" pos="160.639498" lane="e0_0" slope="0.000000"/>
    </timestep>
    <timestep time="16.000">
        <vehicle id="veh0" x="173.789615" y="-1.600000" angle="90.000000" type="dawdler" speed="13.150116" pos="173.789615" lane="e0_0" slope="0.000000"/>
    </timestep>
    <timestep time="17.000">
        <vehicle id="veh0" x="187.345556" y="-1.600000" angle="90.000000" type="dawdler" speed="13.555941" pos="187.345556" lane="e0_0" slope="0.000000"/>
    </timestep>
    <timestep time="18.000">
        <vehicle id="veh0" x="200.131037" y="-1.600000" angle="90.000000" type="dawdler" speed="12.785481" pos="200.131037" lane="e0_0" slope="0.000000"/>
    </timestep>
    <timestep time="19.000">
        <vehicle id="veh0" x="213.984239" y="-1.600000" angle="90.000000" type="dawdler" speed="13.853202" pos="213.984239" lane="e0_0" slope="0.000000"/>
    </timestep>
    <timestep time="20.000">
        <vehicle id="veh0" x="226.601523" y="-1.600000" angle="90.000000" type="dawdler" speed="12.617284" pos="226.601523" lane="e0_0" slope="0.000000"/>
    </timestep>
    <timestep time="21.000">
        <vehicle id="veh0" x="239.665088" y="-1.600000" angle="90.000000" type="dawdler" speed="13.063565" pos="239.665088" lane="e0_0" slope="0.000000"/>
    </timestep>
    <timestep time="22.000">
        <vehicle id="veh0" x="253.134739" y="-1.600000" angle="90.000000" type="dawdler" speed="13.469651" pos="253.134739" lane="e0_0" slope="0.000000"/>
    </timestep>
    <timestep time="23.000">
        <vehicle id="veh0" x="265.923233" y="-1.600000" angle="90.000000" type="dawdler" speed="12.788494" pos="265.923233" lane="e0_0" slope="0.000000"/>
    </timestep>
    <timestep time="24.000">
        <vehicle id="veh0" x="279.092109" y="-1.600000" angle="90.000000" type="dawdler" speed="13.168876" pos="279.092109" lane="e0_0" slope="0.000000"/>
    </timestep>
    <timestep time="25.000">
        <vehicle id="veh0" x="292.025082" y="-1.600000" angle="90.000000" type="dawdler" speed="12.932973" pos="292.025082" lane="e0_0" slope="0.000000"/>
    </timestep>
    <timestep time="26.000">
        <vehicle id="veh0" x="305.142463" y="-1.600000" angle="90.000000" type="dawdler" speed="13.117380" pos="305.142463" lane="e0_0" slope="0.000000"/>
    </timestep>
    <timestep time="27.000">
        <vehicle id="veh0" x="319.005414" y="-1.600000" angle="90.000000" type="dawdler" speed="13.862951" pos="319.005414" lane="e0_0" slope="0.000000"/>
    </timestep>
    <timestep time="28.000">
        <vehicle id="veh0" x="332.520217" y="-1.600000" angle="90.000000" type="dawdler" speed="13.514804" pos="332.520217" lane="e0_0" slope="0.000000"/>
    </timestep>
    <timestep time="29.000">
        <vehicle id="veh0" x="346.265133" y="-1.600000" angle="90.000000" type="dawdler" speed="13.744916" pos="346.265133" lane="e0_0" slope="0.000000"/>
    </timestep>
    <timestep time="30.000">
        <vehicle id="veh0" x="359.328921" y="-1.600000" angle="90.000000" type="dawdler" speed="13.063788" pos="359.328921" lane="e0_0" slope="0.000000"/>
    </timestep>
    <timestep time="31.000">
        <vehicle id="veh0" x="372.831880" y="-1.600000" angle="90.000000" type="dawdler" speed="13.502959" pos="372.831880" lane="e0_0" slope="0.000000"/>
    </timestep>
    <timestep time="32.000">
        <vehicle id="veh0" x="386.457262" y="-1.600000" angle="90.000000" type="dawdler" speed="13.625382" pos="386.457262" lane="e0_0" slope="0.000000"/>
    </timestep>
    <timestep time="33.000">
        <vehicle id="veh0" x="399.454201" y="-1.600000" angle="90.000000" type="dawdler" speed="12.996939" pos="399.454201" lane="e0_0" slope="0.000000"/>
    </timestep>
    <timestep time="34.000">
        <vehicle id="veh0" x="412.973234" y="-1.600000" angle="90.000000" type="dawdler" speed="13.519033" pos="412.973234" lane="e0_0" slope="0.000000"/>
    </timestep>
    <timestep time="35.000">
        <vehicle id="veh0" x="425.743120" y="-1.600000" angle="90.000000" type="dawdler" speed="12.769886" pos="425.743120" lane="e0_0" slope="0.000000"/>
    </timestep>
    <timestep time="36.000">
        <vehicle id="veh0" x="438.824336" y="-1.600000" angle="90.000000" type="dawdler" speed="13.081216" pos="438.824336" lane="e0_0" slope="0.000000"/>
    </timestep>
    <timestep time="37.000">
        <vehicle id="veh0" x="452.456112" y="-1.600000" angle="90.000000" type="dawdler" speed="13.631775" pos="452.456112" lane="e0_0" slope="0.000000"/>
    </timestep>
    <timestep time="38.000">
        <vehicle id="veh0" x="465.836014" y="-1.600000" angle="90.000000" type="dawdler" speed="13.379902" pos="465.836014" lane="e0_0" slope="0.000000"/>
    </timestep>
    <timestep time="39.000">
        <vehicle id="veh0" x="478.871668" y="-1.600000" angle="90.000000" type="dawdler" speed="13.035654" pos="478.871668" lane="e0_0" slope="0.000000"/>
    </timestep>
    <timestep time="40.000">
        <vehicle id="veh0" x="492.040099" y="-1.600000" angle="90.000000" type="dawdler" speed="13.168431" pos="492.040099" lane="e0_0" slope="0.000000"/>
    </timestep>
    <timestep time="41.000">
        <vehicle id="veh0" x="505.020546" y="-1.600000" angle="90.000000" type="dawdler" speed="12.980448" pos="505.020546" lane="e0_0" slope="0.000000"/>
    </timestep>
    <timestep time="42.000">
        <vehicle id="veh0" x="517.733097" y="-1.600000" angle="90.000000" type="dawdler" speed="12.712551" pos="517.733097" lane="e0_0" slope="0.000000"/>
    </timestep>
    <timestep time="43.000">
        <vehicle id="veh0" x="531.164987" y="-1.600000" angle="90.000000" type="dawdler" speed="13.431890" pos="531.164987" lane="e0_0" slope="0.000000"/>
    </timestep>
    <timestep time="44.000">
        <vehicle id="veh0" x="544.377701" y="-1.600000" angle="90.000000" type="dawdler" speed="13.212714" pos="544.377701" lane="e0_0" slope="0.000000"/>
    </timestep>
    <timestep time="45.000">
        <vehicle id="veh0" x="557.240753" y="-1.600000" angle="90.000000" type="dawdler" speed="12.863051" pos="557.240753" lane="e0_0" slope="0.000000"/>
    </timestep>
    <timestep time="46.000">
        <vehicle id="veh0" x="569.910380" y="-1.600000" angle="90.000000" type="dawdler" speed="12.669628" pos="569.910380" lane="e0_0" slope="0.000000"/>
    </timestep>
    <timestep time="47.000">
        <vehicle id="veh0" x="582.742118" y="-1.600000" angle="90.000000" type="dawdler" speed="12.831738" pos="582.742118" lane="e0_0" slope="0.000000"/>
    </timestep>
    <timestep time="48.000">
        <vehicle id="veh0" x="595.673817" y="-1.600000" angle="90.000000" type="dawdler" speed="12.931699" pos="595.673817" lane="e0_0" slope="0.000000"/>
    </timestep>
    <timestep time="49.000">
        <vehicle id="veh0" x="609.307169" y="-1.600000" angle="90.000000" type="dawdler" speed="13.633352" pos="609.307169" lane="e0_0" slope="0.000000"/>
    </timestep>
    <timestep time="50.000">
        <vehicle id="veh0" x="622.853036" y="-1.600000" angle="90.000000" type="dawdler" speed="13.545867" pos="622.853036" lane="e0_0" slope="0.000000"/>
    </timestep>
    <timestep time="51.000">
        <vehicle id="veh0" x="635.508744" y="-1.600000" angle="90.000000" type="dawdler" speed="12.655708" pos="635.508744" lane="e0_0" slope="0.000000"/>
    </timestep>
    <timestep time="52.000">
        <vehicle id="veh0" x="648.846820" y="-1.600000" angle="90.000000" type="dawdler" speed="13.338077" pos="648.846820" lane="e0_0" slope="0.000000"/>
    </timestep>
    <timestep time="53.000">
        <vehicle id="veh0" x="662.117240" y="-1.600000" angle="90.000000" type="dawdler" speed="13.270419" pos="662.117240" lane="e0_0" slope="0.000000"/>
    </timestep>
    <timestep time="54.000">
        <vehicle id="veh0" x="674.745085" y="-1.600000" angle="90.000000" type="dawdler" speed="12.627845" pos="674.745085" lane="e0_0" slope="0.000000"/>
    </timestep>
    <timestep time="55.000">
        <vehicle id="veh0" x="687.768504" y="-1.600000" angle="90.000000" type="dawdler" speed="13.023420" pos="687.768504" lane="e0_0" slope="0.000000"/>
    </timestep>
    <timestep time="56.000">
        <vehicle id="veh0" x="701.411381" y="-1.600000" angle="90.000000" type="dawdler" speed="13.642877" pos="701.411381" lane="e0_0" slope="0.000000"/>
    </timestep>
    <timestep time="57.000">
        <vehicle id="veh0" x="715.026675" y="-1.600000" angle="90.000000" type="dawdler" speed="13.615294" pos="715.026675" lane="e0_0" slope="0.000000"/>
    </timestep>
    <timestep time="58.000">
        <vehicle id="veh0" x="728.216061" y="-1.600000" angle="90.000000" type="dawdler" speed="13.189385" pos="728.216061" lane="e0_0" slope="0.000000"/>
    </timestep>
    <timestep time="59.000">
        <vehicle id="veh0" x="741.056277" y="-1.600000" angle="90.000000" type="dawdler" speed="12.840216" pos="741.056277" lane="e0_0" slope="0.000000"/>
    </timestep>
    <timestep time="60.000">
        <vehicle id="veh0" x="754.312827" y="-1.600000" angle="90.000000" type="dawdler" speed="13.256550" pos="754.312827" lane="e0_0" slope="0.000000"/>
    </timestep>
    <timestep time="61.000">
        <vehicle id="veh0" x="767.787235" y="-1.600000" angle="90.000000" type="dawdler" speed="13.474408" pos="767.787235" lane="e0_0" slope="0.000000"/>
    </timestep>
    <timestep time="62.000">
        <vehicle id="veh0" x="780.670576" y="-1.600000" angle="90.000000" type="dawdler" speed="12.883342" pos="780.670576" lane="e0_0" slope="0.000000"/>
    </timestep>
    <timestep time="63.000">
        <vehicle id="veh0" x="794.178459" y="-1.600000" angle="90.000000" type="dawdler" speed="13.507883" pos="794.178459" lane="e0_0" slope="0.000000"/>
    </timestep>
    <timestep time="64.000">
        <vehicle id="veh0" x="807.155938" y="-1.600000" angle="90.000000" type="dawdler" speed="12.977479" pos="807.155938" lane="e0_0" slope="0.000000"/>
    </timestep>
    <timestep time="65.000">
        <vehicle id="veh0" x="820.653444" y="-1.600000" angle="90.000000" type="dawdler" speed="13.497506" pos="820.653444" lane="e0_0" slope="0.000000"/>
    </timestep>
    <timestep time="66.000">
        <vehicle id="veh0" x="833.443493" y="-1.600000" angle="90.000000" type="dawdler" speed="12.790049" pos="833.443493" lane="e0_0" slope="0.000000"/>
    </timestep>
    <timestep time="67.000">
        <vehicle id="veh0" x="846.257237" y="-1.600000" angle="90.000000" type="dawdler" speed="12.813744" pos="846.257237" lane="e0_0" slope="0.000000"/>
    </timestep>
    <timestep time="68.000">
        <vehicle id="veh0" x="859.436849" y="-1.600000" angle="90.000000" type="dawdler" speed="13.179612" pos="859.436849" lane="e0_0" slope="0.000000"/>
    </timestep>
    <timestep time="69.000">
        <vehicle id="veh0" x="872.608555" y="-1.600000" angle="90.000000" type="dawdler" speed="13.171706" pos="872.608555" lane="e0_0" slope="0.000000"/>
    </timestep>
    <timestep time="70.000">
        <vehicle id="veh0" x="886.028991" y="-1.600000" angle="90.000000" type="dawdler" speed="13.420436" pos="886.028991" lane="e0_0" slope="0.000000"/>
    </timestep>
    <timestep time="71.000">
        <vehicle id="veh0" x="899.669811" y="-1.600000" angle="90.000000" type="dawdler" speed="13.640819" pos="899.669811" lane="e0_0" slope="0.000000"/>
    </timestep>
    <timestep time="72.000">
        <vehicle id="veh0" x="912.521114" y="-1.600000" angle="90.000000" type="dawdler" speed="12.851303" pos="912.521114" lane="e0_0" slope="0.000000"/>
    </timestep>
    <timestep time="73.000">
        <vehicle id="veh0" x="925.482580" y="-1.600000" angle="90.000000" type="dawdler" speed="12.961466" pos="925.482580" lane="e0_0" slope="0.000000"/>
    </timestep>
    <timestep time="74.000">
        <vehicle id="veh0" x="938.144096" y="-1.600000" angle="90.000000" type="dawdler" speed="12.661515" pos="938.144096" lane="e0_0" slope="0.000000"/>
    </timestep>
    <timestep time="75.000">
        <vehicle id="veh0" x="951.202264" y="-1.600000" angle="90.000000" type="dawdler" speed="13.058169" pos="951.202264" lane="e0_0" slope="0.000000"/>
    </timestep>
    <timestep time="76.000">
        <vehicle id="veh0" x="964.363292" y="-1.600000" angle="90.000000" type="dawdler" speed="13.161028" pos="964.363292" lane="e0_0" slope="0.000000"/>
    </timestep>
    <timestep time="77.000">
        <vehicle id="veh0" x="977.560127" y="-1.600000" angle="90.000000" type="dawdler" speed="13.196835" pos="977.560127" lane="e0_0" slope="0.000000"/>
    </timestep>
    <timestep time="78.000">
        <vehicle id="veh0" x="990.404616" y="-1.600000" angle="90.000000" type="dawdler" speed="12.844489" pos="990.404616" lane="e0_0" slope="0.000000"/>
    </timestep>
    <timestep time="79.000">
        <vehicle id="veh0" x="1003.550330" y="-1.600000" angle="90.000000" type="dawdler" speed="13.145714" pos="1003.550330" lane="e0_0" slope="0.000000"/>
    </timestep>
</fcd-export>
