<?xml version="1.0" encoding="UTF-8"?>

<!-- generated on 2026-07-08 15:03:51 by Eclipse SUMO sumo Version 1.20.0
<configuration xmlns:xsi="http://www.w3.org/2001/XMLSchema-instance" xsi:noNamespaceSchemaLocation="http://sumo.dlr.de/xsd/sumoConfiguration.xsd">

    <input>
        <net-file value="net.net.xml"/>
        <route-files value="rou.rou.xml"/>
    </input>

    <output>
        <summary-output value="summary.xml"/>
        <tripinfo-output value="tripinfo.xml"/>
    </output>

    <time>
        <begin value="0"/>
        <end value="1200"/>
        <step-length value="1"/>
    </time>

    <processing>
        <step-method.ballistic value="false"/>
        <time-to-teleport value="-1"/>
        <default.action-step-length value="1"/>
        <default.speeddev value="0"/>
    </processing>

    <report>
        <no-step-log value="true"/>
    </report>

    <random_number>
        <seed value="42"/>
    </random_number>

</configuration>
-->

<tripinfos xmlns:xsi="http://www.w3.org/2001/XMLSchema-instance" xsi:noNamespaceSchemaLocation="http://sumo.dlr.de/xsd/tripinfo_file.xsd">
    <tripinfo id="245" depart="39.00" departLane="F19F18_0" departPos="5.10" departSpeed="0.00" departDelay="0.47" arrival="114.00" arrivalLane="F18G18_0" arrivalPos="485.60" arrivalSpeed="13.89" duration="75.00" routeLength="980.30" waitingTime="0.00" waitingCount="0" stopTime="0.00" timeLoss="3.66" rerouteNo="0" devices="tripinfo_245" vType="DEFAULT_VEHTYPE" speedFactor="1.00" vaporized=""/>
    <tripinfo id="44" depart="7.00" departLane="C18C17_0" departPos="5.10" departSpeed="0.00" departDelay="0.08" arrival="120.00" arrivalLane="B17C17_0" arrivalPos="485.60" arrivalSpeed="13.89" duration="113.00" routeLength="1465.40" waitingTime="0.00" waitingCount="0" stopTime="0.00" timeLoss="6.16" rerouteNo="0" devices="tripinfo_44" vType="DEFAULT_VEHTYPE" speedFactor="1.00" vaporized=""/>
    <tripinfo id="1" depart="1.00" departLane="G3G2_0" departPos="5.10" departSpeed="0.00" departDelay="0.84" arrival="150.00" arrivalLane="F1G1_0" arrivalPos="485.60" arrivalSpeed="13.89" duration="149.00" routeLength="1965.40" waitingTime="0.00" waitingCount="0" stopTime="0.00" timeLoss="6.17" rerouteNo="0" devices="tripinfo_1" vType="DEFAULT_VEHTYPE" speedFactor="1.00" vaporized=""/>
    <tripinfo id="13" depart="3.00" departLane="C19C18_0" departPos="5.10" departSpeed="0.00" departDelay="0.96" arrival="151.00" arrivalLane="C20C21_0" arrivalPos="485.60" arrivalSpeed="13.89" duration="148.00" routeLength="1970.77" waitingTime="0.00" waitingCount="0" stopTime="0.00" timeLoss="5.23" rerouteNo="0" devices="tripinfo_13" vType="DEFAULT_VEHTYPE" speedFactor="1.00" vaporized=""/>
    <tripinfo id="271" depart="43.00" departLane="C5B5_0" departPos="5.10" departSpeed="0.00" departDelay="0.39" arrival="155.00" arrivalLane="A5A6_0" arrivalPos="485.60" arrivalSpeed="13.89" duration="112.00" routeLength="1475.13" waitingTime="0.00" waitingCount="0" stopTime="0.00" timeLoss="4.63" rerouteNo="0" devices="tripinfo_271" vType="DEFAULT_VEHTYPE" speedFactor="1.00" vaporized=""/>
    <tripinfo id="84" depart="14.00" departLane="F16E16_0" departPos="5.10" departSpeed="0.00" departDelay="0.79" arrival="164.00" arrivalLane="D17E17_0" arrivalPos="485.60" arrivalSpeed="13.89" duration="150.00" routeLength="1969.76" waitingTime="0.00" waitingCount="0" stopTime="0.00" timeLoss="6.30" rerouteNo="0" devices="tripinfo_84" vType="DEFAULT_VEHTYPE" speedFactor="1.00" vaporized=""/>
    <tripinfo id="89" depart="14.00" departLane="K14J14_0" departPos="5.10" departSpeed="0.00" departDelay="0.00" arrival="165.00" arrivalLane="L14L15_0" arrivalPos="485.60" arrivalSpeed="13.89" duration="151.00" routeLength="1970.56" waitingTime="0.00" waitingCount="0" stopTime="0.00" timeLoss="7.27" rerouteNo="0" devices="tripinfo_89" vType="DEFAULT_VEHTYPE" speedFactor="1.00" vaporized=""/>
    <tripinfo id="100" depart="16.00" departLane="X0X1_0" departPos="5.10" departSpeed="0.00" departDelay="0.28" arrival="169.00" arrivalLane="W0W1_0" arrivalPos="485.60" arrivalSpeed="13.89" duration="153.00" routeLength="1965.58" waitingTime="0.00" waitingCount="0" stopTime="0.00" timeLoss="8.79" rerouteNo="0" devices="tripinfo_100" vType="DEFAULT_VEHTYPE" speedFactor="1.00" vaporized=""/>
    <tripinfo id="127" depart="20.00" departLane="X8X9_0" departPos="5.10" departSpeed="0.00" departDelay="0.03" arrival="170.00" arrivalLane="X7W7_0" arrivalPos="485.60" arrivalSpeed="13.89" duration="150.00" routeLength="1965.40" waitingTime="0.00" waitingCount="0" stopTime="0.00" timeLoss="6.47" rerouteNo="0" devices="tripinfo_127" vType="DEFAULT_VEHTYPE" speedFactor="1.00" vaporized=""/>
    <tripinfo id="130" depart="21.00" departLane="U8U9_0" departPos="5.10" departSpeed="0.00" departDelay="0.56" arrival="171.00" arrivalLane="U7V7_0" arrivalPos="485.60" arrivalSpeed="13.89" duration="150.00" routeLength="1970.57" waitingTime="0.00" waitingCount="0" stopTime="0.00" timeLoss="6.59" rerouteNo="0" devices="tripinfo_130" vType="DEFAULT_VEHTYPE" speedFactor="1.00" vaporized=""/>
    <tripinfo id="409" depart="67.00" departLane="R4Q4_0" departPos="5.10" departSpeed="0.00" departDelay="2.68" arrival="180.00" arrivalLane="Q5R5_0" arrivalPos="485.60" arrivalSpeed="13.89" duration="113.00" routeLength="1469.76" waitingTime="0.00" waitingCount="0" stopTime="0.00" timeLoss="5.30" rerouteNo="0" devices="tripinfo_409" vType="DEFAULT_VEHTYPE" speedFactor="1.00" vaporized=""/>
    <tripinfo id="424" depart="67.00" departLane="R12R11_0" departPos="5.10" departSpeed="0.00" departDelay="0.33" arrival="181.00" arrivalLane="S11S10_0" arrivalPos="485.60" arrivalSpeed="13.89" duration="114.00" routeLength="1474.93" waitingTime="0.00" waitingCount="0" stopTime="0.00" timeLoss="5.11" rerouteNo="0" devices="tripinfo_424" vType="DEFAULT_VEHTYPE" speedFactor="1.00" vaporized=""/>
    <tripinfo id="449" depart="71.00" departLane="N2N3_0" departPos="5.10" departSpeed="0.00" departDelay="0.39" arrival="183.00" arrivalLane="N4N3_0" arrivalPos="485.60" arrivalSpeed="13.89" duration="112.00" routeLength="1470.77" waitingTime="0.00" waitingCount="0" stopTime="0.00" timeLoss="5.24" rerouteNo="0" devices="tripinfo_449" vType="DEFAULT_VEHTYPE" speedFactor="1.00" vaporized=""/>
    <tripinfo id="466" depart="74.00" departLane="E18D18_0" departPos="5.10" departSpeed="0.00" departDelay="0.72" arrival="188.00" arrivalLane="D17D18_0" arrivalPos="485.60" arrivalSpeed="13.89" duration="114.00" routeLength="1470.56" waitingTime="0.00" waitingCount="0" stopTime="0.00" timeLoss="6.40" rerouteNo="0" devices="tripinfo_466" vType="DEFAULT_VEHTYPE" speedFactor="1.00" vaporized=""/>
    <tripinfo id="533" depart="84.00" departLane="P12O12_0" departPos="5.10" departSpeed="0.00" departDelay="0.19" arrival="196.00" arrivalLane="N12N11_0" arrivalPos="485.60" arrivalSpeed="13.89" duration="112.00" routeLength="1480.29" waitingTime="0.00" waitingCount="0" stopTime="0.00" timeLoss="4.31" rerouteNo="0" devices="tripinfo_533" vType="DEFAULT_VEHTYPE" speedFactor="1.00" vaporized=""/>
    <tripinfo id="57" depart="9.00" departLane="V2W2_0" departPos="5.10" departSpeed="0.00" departDelay="0.04" arrival="199.00" arrivalLane="U3T3_0" arrivalPos="485.60" arrivalSpeed="13.89" duration="190.00" routeLength="2465.20" waitingTime="0.00" waitingCount="0" stopTime="0.00" timeLoss="9.94" rerouteNo="0" devices="tripinfo_57" vType="DEFAULT_VEHTYPE" speedFactor="1.00" vaporized=""/>
    <tripinfo id="107" depart="17.00" departLane="W3X3_0" departPos="5.10" departSpeed="0.00" departDelay="0.17" arrival="203.00" arrivalLane="X6X5_0" arrivalPos="485.60" arrivalSpeed="13.89" duration="186.00" routeLength="2470.56" waitingTime="0.00" waitingCount="0" stopTime="0.00" timeLoss="6.41" rerouteNo="0" devices="tripinfo_107" vType="DEFAULT_VEHTYPE" speedFactor="1.00" vaporized=""/>
    <tripinfo id="602" depart="95.00" departLane="J21I21_0" departPos="5.10" departSpeed="0.00" departDelay="0.34" arrival="209.00" arrivalLane="H21G21_0" arrivalPos="485.60" arrivalSpeed="13.89" duration="114.00" routeLength="1480.50" waitingTime="0.00" waitingCount="0" stopTime="0.00" timeLoss="6.46" rerouteNo="0" devices="tripinfo_602" vType="DEFAULT_VEHTYPE" speedFactor="1.00" vaporized=""/>
    <tripinfo id="625" depart="99.00" departLane="M13L13_0" departPos="5.10" departSpeed="0.00" departDelay="0.72" arrival="212.00" arrivalLane="L12K12_0" arrivalPos="485.60" arrivalSpeed="13.89" duration="113.00" routeLength="1474.92" waitingTime="0.00" waitingCount="0" stopTime="0.00" timeLoss="4.63" rerouteNo="0" devices="tripinfo_625" vType="DEFAULT_VEHTYPE" speedFactor="1.00" vaporized=""/>
    <tripinfo id="654" depart="103.00" departLane="I4H4_0" departPos="5.10" departSpeed="0.00" departDelay="0.16" arrival="217.00" arrivalLane="I4I5_0" arrivalPos="485.60" arrivalSpeed="13.89" duration="114.00" routeLength="1470.56" waitingTime="0.00" waitingCount="0" stopTime="0.00" timeLoss="6.38" rerouteNo="0" devices="tripinfo_654" vType="DEFAULT_VEHTYPE" speedFactor="1.00" vaporized=""/>
    <tripinfo id="440" depart="70.00" departLane="G14G13_0" departPos="5.10" departSpeed="0.00" departDelay="0.81" arrival="220.00" arrivalLane="G15F15_0" arrivalPos="485.60" arrivalSpeed="13.89" duration="150.00" routeLength="1970.57" waitingTime="0.00" waitingCount="0" stopTime="0.00" timeLoss="6.59" rerouteNo="0" devices="tripinfo_440" vType="DEFAULT_VEHTYPE" speedFactor="1.00" vaporized=""/>
    <tripinfo id="459" depart="73.00" departLane="Q13Q12_0" departPos="5.10" departSpeed="0.00" departDelay="0.82" arrival="225.00" arrivalLane="R13R14_0" arrivalPos="485.60" arrivalSpeed="13.89" duration="152.00" routeLength="1965.19" waitingTime="0.00" waitingCount="0" stopTime="0.00" timeLoss="8.04" rerouteNo="0" devices="tripinfo_459" vType="DEFAULT_VEHTYPE" speedFactor="1.00" vaporized=""/>
    <tripinfo id="31" depart="5.00" departLane="N17M17_0" departPos="5.10" departSpeed="0.00" departDelay="0.13" arrival="231.00" arrivalLane="Q17P17_0" arrivalPos="485.60" arrivalSpeed="13.89" duration="226.00" routeLength="2961.04" waitingTime="0.00" waitingCount="0" stopTime="0.00" timeLoss="10.42" rerouteNo="0" devices="tripinfo_31" vType="DEFAULT_VEHTYPE" speedFactor="1.00" vaporized=""/>
    <tripinfo id="525" depart="83.00" departLane="S23T23_0" departPos="5.10" departSpeed="0.00" departDelay="0.44" arrival="231.00" arrivalLane="U22V22_0" arrivalPos="485.60" arrivalSpeed="13.89" duration="148.00" routeLength="1974.93" waitingTime="0.00" waitingCount="0" stopTime="0.00" timeLoss="4.50" rerouteNo="0" devices="tripinfo_525" vType="DEFAULT_VEHTYPE" speedFactor="1.00" vaporized=""/>
    <tripinfo id="1238" depart="195.00" departLane="F11G11_0" departPos="5.10" departSpeed="0.00" departDelay="0.32" arrival="232.00" arrivalLane="F11G11_0" arrivalPos="485.60" arrivalSpeed="13.89" duration="37.00" routeLength="480.50" waitingTime="0.00" waitingCount="0" stopTime="0.00" timeLoss="2.19" rerouteNo="0" devices="tripinfo_1238" vType="DEFAULT_VEHTYPE" speedFactor="1.00" vaporized=""/>
    <tripinfo id="64" depart="11.00" departLane="U7U8_0" departPos="5.10" departSpeed="0.00" departDelay="0.94" arrival="234.00" arrivalLane="T5S5_0" arrivalPos="485.60" arrivalSpeed="13.89" duration="223.00" routeLength="2965.40" waitingTime="0.00" waitingCount="0" stopTime="0.00" timeLoss="7.98" rerouteNo="0" devices="tripinfo_64" vType="DEFAULT_VEHTYPE" speedFactor="1.00" vaporized=""/>
    <tripinfo id="106" depart="17.00" departLane="K8K9_0" departPos="5.10" departSpeed="0.00" departDelay="0.33" arrival="236.00" arrivalLane="K13L13_0" arrivalPos="485.60" arrivalSpeed="13.89" duration="219.00" routeLength="2975.13" waitingTime="0.00" waitingCount="0" stopTime="0.00" timeLoss="3.45" rerouteNo="0" devices="tripinfo_106" vType="DEFAULT_VEHTYPE" speedFactor="1.00" vaporized=""/>
    <tripinfo id="339" depart="54.00" departLane="F12F11_0" departPos="5.10" departSpeed="0.00" departDelay="0.69" arrival="240.00" arrivalLane="F14E14_0" arrivalPos="485.60" arrivalSpeed="13.89" duration="186.00" routeLength="2470.57" waitingTime="0.00" waitingCount="0" stopTime="0.00" timeLoss="6.60" rerouteNo="0" devices="tripinfo_339" vType="DEFAULT_VEHTYPE" speedFactor="1.00" vaporized=""/>
    <tripinfo id="422" depart="67.00" departLane="U15U16_0" departPos="5.10" departSpeed="0.00" departDelay="0.64" arrival="248.00" arrivalLane="U19U20_0" arrivalPos="485.60" arrivalSpeed="13.89" duration="181.00" routeLength="2480.50" waitingTime="0.00" waitingCount="0" stopTime="0.00" timeLoss="2.19" rerouteNo="0" devices="tripinfo_422" vType="DEFAULT_VEHTYPE" speedFactor="1.00" vaporized=""/>
    <tripinfo id="132" depart="21.00" departLane="T6S6_0" departPos="5.10" departSpeed="0.00" departDelay="0.24" arrival="249.00" arrivalLane="Q4R4_0" arrivalPos="485.60" arrivalSpeed="9.90" duration="228.00" routeLength="2965.19" waitingTime="0.00" waitingCount="0" stopTime="0.00" timeLoss="11.73" rerouteNo="0" devices="tripinfo_132" vType="DEFAULT_VEHTYPE" speedFactor="1.00" vaporized=""/>
    <tripinfo id="388" depart="62.00" departLane="X4W4_0" departPos="5.10" departSpeed="0.00" departDelay="0.99" arrival="249.00" arrivalLane="V2W2_0" arrivalPos="485.60" arrivalSpeed="13.89" duration="187.00" routeLength="2465.19" waitingTime="0.00" waitingCount="0" stopTime="0.00" timeLoss="7.34" rerouteNo="0" devices="tripinfo_388" vType="DEFAULT_VEHTYPE" speedFactor="1.00" vaporized=""/>
    <tripinfo id="186" depart="30.00" departLane="R2R3_0" departPos="5.10" departSpeed="0.00" departDelay="0.75" arrival="252.00" arrivalLane="Q0P0_0" arrivalPos="485.60" arrivalSpeed="13.89" duration="222.00" routeLength="2965.40" waitingTime="0.00" waitingCount="0" stopTime="0.00" timeLoss="6.71" rerouteNo="0" devices="tripinfo_186" vType="DEFAULT_VEHTYPE" speedFactor="1.00" vaporized=""/>
    <tripinfo id="613" depart="97.00" departLane="R9R10_0" departPos="5.10" departSpeed="0.00" departDelay="0.61" arrival="252.00" arrivalLane="S11S12_0" arrivalPos="485.60" arrivalSpeed="13.89" duration="155.00" routeLength="1974.92" waitingTime="4.00" waitingCount="1" stopTime="0.00" timeLoss="11.05" rerouteNo="0" devices="tripinfo_613" vType="DEFAULT_VEHTYPE" speedFactor="1.00" vaporized=""/>
    <tripinfo id="635" depart="100.00" departLane="K21L21_0" departPos="5.10" departSpeed="0.00" departDelay="0.15" arrival="254.00" arrivalLane="M20N20_0" arrivalPos="485.60" arrivalSpeed="6.60" duration="154.00" routeLength="1974.93" waitingTime="0.00" waitingCount="0" stopTime="0.00" timeLoss="9.88" rerouteNo="0" devices="tripinfo_635" vType="DEFAULT_VEHTYPE" speedFactor="1.00" vaporized=""/>
    <tripinfo id="673" depart="106.00" departLane="W20V20_0" departPos="5.10" departSpeed="0.00" departDelay="0.17" arrival="258.00" arrivalLane="X20W20_0" arrivalPos="485.60" arrivalSpeed="13.89" duration="152.00" routeLength="1961.04" waitingTime="0.00" waitingCount="0" stopTime="0.00" timeLoss="8.38" rerouteNo="0" devices="tripinfo_673" vType="DEFAULT_VEHTYPE" speedFactor="1.00" vaporized=""/>
    <tripinfo id="932" depart="147.00" departLane="E22D22_0" departPos="5.10" departSpeed="0.00" departDelay="0.44" arrival="258.00" arrivalLane="D21D20_0" arrivalPos="485.60" arrivalSpeed="13.89" duration="111.00" routeLength="1480.29" waitingTime="0.00" waitingCount="0" stopTime="0.00" timeLoss="3.39" rerouteNo="0" devices="tripinfo_932" vType="DEFAULT_VEHTYPE" speedFactor="1.00" vaporized=""/>
    <tripinfo id="929" depart="147.00" departLane="U17V17_0" departPos="5.10" departSpeed="0.00" departDelay="0.91" arrival="260.00" arrivalLane="V16W16_0" arrivalPos="485.60" arrivalSpeed="13.89" duration="113.00" routeLength="1474.93" waitingTime="0.00" waitingCount="0" stopTime="0.00" timeLoss="4.53" rerouteNo="0" devices="tripinfo_929" vType="DEFAULT_VEHTYPE" speedFactor="1.00" vaporized=""/>
    <tripinfo id="717" depart="113.00" departLane="S18R18_0" departPos="5.10" departSpeed="0.00" departDelay="0.25" arrival="261.00" arrivalLane="R20R21_0" arrivalPos="485.60" arrivalSpeed="8.83" duration="148.00" routeLength="1975.13" waitingTime="0.00" waitingCount="0" stopTime="0.00" timeLoss="5.04" rerouteNo="0" devices="tripinfo_717" vType="DEFAULT_VEHTYPE" speedFactor="1.00" vaporized=""/>
    <tripinfo id="716" depart="113.00" departLane="R1R0_0" departPos="5.10" departSpeed="0.00" departDelay="0.41" arrival="262.00" arrivalLane="P0P1_0" arrivalPos="485.60" arrivalSpeed="13.89" duration="149.00" routeLength="1969.76" waitingTime="0.00" waitingCount="0" stopTime="0.00" timeLoss="5.30" rerouteNo="0" devices="tripinfo_716" vType="DEFAULT_VEHTYPE" speedFactor="1.00" vaporized=""/>
    <tripinfo id="17" depart="3.00" departLane="J12J13_0" departPos="5.10" departSpeed="0.00" departDelay="0.33" arrival="263.00" arrivalLane="N14N13_0" arrivalPos="485.60" arrivalSpeed="13.89" duration="260.00" routeLength="3469.76" waitingTime="0.00" waitingCount="0" stopTime="0.00" timeLoss="8.53" rerouteNo="0" devices="tripinfo_17" vType="DEFAULT_VEHTYPE" speedFactor="1.00" vaporized=""/>
    <tripinfo id="482" depart="76.00" departLane="C5C4_0" departPos="5.10" departSpeed="0.00" departDelay="0.21" arrival="264.00" arrivalLane="F4E4_0" arrivalPos="485.60" arrivalSpeed="13.89" duration="188.00" routeLength="2470.57" waitingTime="0.00" waitingCount="0" stopTime="0.00" timeLoss="7.81" rerouteNo="0" devices="tripinfo_482" vType="DEFAULT_VEHTYPE" speedFactor="1.00" vaporized=""/>
    <tripinfo id="486" depart="77.00" departLane="T22T23_0" departPos="5.10" departSpeed="0.00" departDelay="0.58" arrival="264.00" arrivalLane="V22V23_0" arrivalPos="485.60" arrivalSpeed="13.89" duration="187.00" routeLength="2460.03" waitingTime="0.00" waitingCount="0" stopTime="0.00" timeLoss="7.96" rerouteNo="0" devices="tripinfo_486" vType="DEFAULT_VEHTYPE" speedFactor="1.00" vaporized=""/>
    <tripinfo id="496" depart="78.00" departLane="L4K4_0" departPos="5.10" departSpeed="0.00" departDelay="0.00" arrival="264.00" arrivalLane="J6J5_0" arrivalPos="485.60" arrivalSpeed="13.89" duration="186.00" routeLength="2465.40" waitingTime="0.00" waitingCount="0" stopTime="0.00" timeLoss="7.16" rerouteNo="0" devices="tripinfo_496" vType="DEFAULT_VEHTYPE" speedFactor="1.00" vaporized=""/>
    <tripinfo id="594" depart="94.00" departLane="N4O4_0" departPos="5.10" departSpeed="0.00" departDelay="0.59" arrival="264.00" arrivalLane="N3N4_0" arrivalPos="485.60" arrivalSpeed="13.89" duration="170.00" routeLength="1964.39" waitingTime="17.00" waitingCount="1" stopTime="0.00" timeLoss="25.97" rerouteNo="0" devices="tripinfo_594" vType="DEFAULT_VEHTYPE" speedFactor="1.00" vaporized=""/>
    <tripinfo id="261" depart="42.00" departLane="P20P21_0" departPos="5.10" departSpeed="0.00" departDelay="0.96" arrival="265.00" arrivalLane="S22S21_0" arrivalPos="485.60" arrivalSpeed="13.89" duration="223.00" routeLength="2969.76" waitingTime="0.00" waitingCount="0" stopTime="0.00" timeLoss="7.50" rerouteNo="0" devices="tripinfo_261" vType="DEFAULT_VEHTYPE" speedFactor="1.00" vaporized=""/>
    <tripinfo id="310" depart="49.00" departLane="G13F13_0" departPos="5.10" departSpeed="0.00" departDelay="0.25" arrival="270.00" arrivalLane="D11D10_0" arrivalPos="485.60" arrivalSpeed="13.89" duration="221.00" routeLength="2980.29" waitingTime="0.00" waitingCount="0" stopTime="0.00" timeLoss="5.34" rerouteNo="0" devices="tripinfo_310" vType="DEFAULT_VEHTYPE" speedFactor="1.00" vaporized=""/>
    <tripinfo id="518" depart="82.00" departLane="F6F5_0" departPos="5.10" departSpeed="0.00" departDelay="0.54" arrival="271.00" arrivalLane="H6H7_0" arrivalPos="485.60" arrivalSpeed="13.89" duration="189.00" routeLength="2465.19" waitingTime="0.00" waitingCount="0" stopTime="0.00" timeLoss="9.20" rerouteNo="0" devices="tripinfo_518" vType="DEFAULT_VEHTYPE" speedFactor="1.00" vaporized=""/>
    <tripinfo id="763" depart="120.00" departLane="G18H18_0" departPos="5.10" departSpeed="0.00" departDelay="0.02" arrival="271.00" arrivalLane="G17H17_0" arrivalPos="485.60" arrivalSpeed="13.89" duration="151.00" routeLength="1960.03" waitingTime="0.00" waitingCount="0" stopTime="0.00" timeLoss="8.02" rerouteNo="0" devices="tripinfo_763" vType="DEFAULT_VEHTYPE" speedFactor="1.00" vaporized=""/>
    <tripinfo id="1481" depart="234.00" departLane="W20X20_0" departPos="5.10" departSpeed="0.00" departDelay="1.11" arrival="272.00" arrivalLane="W20X20_0" arrivalPos="485.60" arrivalSpeed="12.80" duration="38.00" routeLength="480.50" waitingTime="0.00" waitingCount="0" stopTime="0.00" timeLoss="3.18" rerouteNo="0" devices="tripinfo_1481" vType="DEFAULT_VEHTYPE" speedFactor="1.00" vaporized=""/>
    <tripinfo id="813" depart="128.00" departLane="K21L21_0" departPos="5.10" departSpeed="0.00" departDelay="0.16" arrival="278.00" arrivalLane="L23K23_0" arrivalPos="485.60" arrivalSpeed="13.89" duration="150.00" routeLength="1980.08" waitingTime="0.00" waitingCount="0" stopTime="0.00" timeLoss="5.58" rerouteNo="0" devices="tripinfo_813" vType="DEFAULT_VEHTYPE" speedFactor="1.00" vaporized=""/>
    <tripinfo id="1106" depart="174.00" departLane="T0S0_0" departPos="5.10" departSpeed="0.00" departDelay="0.08" arrival="283.00" arrivalLane="R0Q0_0" arrivalPos="485.60" arrivalSpeed="13.89" duration="109.00" routeLength="1480.50" waitingTime="0.00" waitingCount="0" stopTime="0.00" timeLoss="2.19" rerouteNo="0" devices="tripinfo_1106" vType="DEFAULT_VEHTYPE" speedFactor="1.00" vaporized=""/>
    <tripinfo id="394" depart="62.00" departLane="N14M14_0" departPos="5.10" departSpeed="0.00" departDelay="0.04" arrival="289.00" arrivalLane="J15J14_0" arrivalPos="485.60" arrivalSpeed="13.89" duration="227.00" routeLength="2965.40" waitingTime="0.00" waitingCount="0" stopTime="0.00" timeLoss="12.17" rerouteNo="0" devices="tripinfo_394" vType="DEFAULT_VEHTYPE" speedFactor="1.00" vaporized=""/>
    <tripinfo id="630" depart="100.00" departLane="D5D4_0" departPos="5.10" departSpeed="0.00" departDelay="0.93" arrival="290.00" arrivalLane="B3A3_0" arrivalPos="485.60" arrivalSpeed="9.80" duration="190.00" routeLength="2475.13" waitingTime="1.00" waitingCount="1" stopTime="0.00" timeLoss="10.96" rerouteNo="0" devices="tripinfo_630" vType="DEFAULT_VEHTYPE" speedFactor="1.00" vaporized=""/>
    <tripinfo id="1133" depart="179.00" departLane="T18U18_0" departPos="5.10" departSpeed="0.00" departDelay="0.84" arrival="291.00" arrivalLane="U19U20_0" arrivalPos="485.60" arrivalSpeed="13.89" duration="112.00" routeLength="1480.29" waitingTime="0.00" waitingCount="0" stopTime="0.00" timeLoss="4.41" rerouteNo="0" devices="tripinfo_1133" vType="DEFAULT_VEHTYPE" speedFactor="1.00" vaporized=""/>
    <tripinfo id="427" depart="68.00" departLane="V7V6_0" departPos="5.10" departSpeed="0.00" departDelay="0.85" arrival="294.00" arrivalLane="X8W8_0" arrivalPos="485.60" arrivalSpeed="13.89" duration="226.00" routeLength="2955.67" waitingTime="0.00" waitingCount="0" stopTime="0.00" timeLoss="11.06" rerouteNo="0" devices="tripinfo_427" vType="DEFAULT_VEHTYPE" speedFactor="1.00" vaporized=""/>
    <tripinfo id="914" depart="144.00" departLane="V6V7_0" departPos="5.10" departSpeed="0.00" departDelay="0.27" arrival="294.00" arrivalLane="X7X8_0" arrivalPos="485.60" arrivalSpeed="13.89" duration="150.00" routeLength="1974.92" waitingTime="0.00" waitingCount="0" stopTime="0.00" timeLoss="6.25" rerouteNo="0" devices="tripinfo_914" vType="DEFAULT_VEHTYPE" speedFactor="1.00" vaporized=""/>
    <tripinfo id="922" depart="145.00" departLane="W16W15_0" departPos="5.10" departSpeed="0.00" departDelay="0.02" arrival="294.00" arrivalLane="U15T15_0" arrivalPos="485.60" arrivalSpeed="13.89" duration="149.00" routeLength="1975.13" waitingTime="0.00" waitingCount="0" stopTime="0.00" timeLoss="5.80" rerouteNo="0" devices="tripinfo_922" vType="DEFAULT_VEHTYPE" speedFactor="1.00" vaporized=""/>
    <tripinfo id="239" depart="38.00" departLane="U18T18_0" departPos="5.10" departSpeed="0.00" departDelay="0.42" arrival="297.00" arrivalLane="S14T14_0" arrivalPos="485.60" arrivalSpeed="13.89" duration="259.00" routeLength="3465.19" waitingTime="0.00" waitingCount="0" stopTime="0.00" timeLoss="7.35" rerouteNo="0" devices="tripinfo_239" vType="DEFAULT_VEHTYPE" speedFactor="1.00" vaporized=""/>
    <tripinfo id="251" depart="40.00" departLane="J20I20_0" departPos="5.10" departSpeed="0.00" departDelay="0.53" arrival="302.00" arrivalLane="N20N19_0" arrivalPos="485.60" arrivalSpeed="13.89" duration="262.00" routeLength="3465.40" waitingTime="0.00" waitingCount="0" stopTime="0.00" timeLoss="10.63" rerouteNo="0" devices="tripinfo_251" vType="DEFAULT_VEHTYPE" speedFactor="1.00" vaporized=""/>
    <tripinfo id="963" depart="152.00" departLane="T14S14_0" departPos="5.10" departSpeed="0.00" departDelay="0.57" arrival="302.00" arrivalLane="R15Q15_0" arrivalPos="485.60" arrivalSpeed="13.89" duration="150.00" routeLength="1974.93" waitingTime="0.00" waitingCount="0" stopTime="0.00" timeLoss="5.51" rerouteNo="0" devices="tripinfo_963" vType="DEFAULT_VEHTYPE" speedFactor="1.00" vaporized=""/>
    <tripinfo id="747" depart="118.00" departLane="X17X18_0" departPos="5.10" departSpeed="0.00" departDelay="0.53" arrival="303.00" arrivalLane="W20W19_0" arrivalPos="485.60" arrivalSpeed="13.89" duration="185.00" routeLength="2480.09" waitingTime="0.00" waitingCount="0" stopTime="0.00" timeLoss="4.79" rerouteNo="0" devices="tripinfo_747" vType="DEFAULT_VEHTYPE" speedFactor="1.00" vaporized=""/>
    <tripinfo id="258" depart="41.00" departLane="G13G14_0" departPos="5.10" departSpeed="0.00" departDelay="0.43" arrival="304.00" arrivalLane="C13C12_0" arrivalPos="485.60" arrivalSpeed="13.89" duration="263.00" routeLength="3465.19" waitingTime="0.00" waitingCount="0" stopTime="0.00" timeLoss="11.17" rerouteNo="0" devices="tripinfo_258" vType="DEFAULT_VEHTYPE" speedFactor="1.00" vaporized=""/>
    <tripinfo id="313" depart="50.00" departLane="E22E21_0" departPos="5.10" departSpeed="0.00" departDelay="0.78" arrival="308.00" arrivalLane="F17E17_0" arrivalPos="485.60" arrivalSpeed="13.89" duration="258.00" routeLength="3470.57" waitingTime="0.00" waitingCount="0" stopTime="0.00" timeLoss="6.60" rerouteNo="0" devices="tripinfo_313" vType="DEFAULT_VEHTYPE" speedFactor="1.00" vaporized=""/>
    <tripinfo id="758" depart="120.00" departLane="N3O3_0" departPos="5.10" departSpeed="0.00" departDelay="0.80" arrival="309.00" arrivalLane="M2N2_0" arrivalPos="485.60" arrivalSpeed="13.89" duration="189.00" routeLength="2460.03" waitingTime="0.00" waitingCount="0" stopTime="0.00" timeLoss="9.95" rerouteNo="0" devices="tripinfo_758" vType="DEFAULT_VEHTYPE" speedFactor="1.00" vaporized=""/>
    <tripinfo id="76" depart="12.00" departLane="K21J21_0" departPos="5.10" departSpeed="0.00" departDelay="0.05" arrival="310.00" arrivalLane="M18N18_0" arrivalPos="485.60" arrivalSpeed="13.89" duration="298.00" routeLength="3965.20" waitingTime="0.00" waitingCount="0" stopTime="0.00" timeLoss="9.49" rerouteNo="0" devices="tripinfo_76" vType="DEFAULT_VEHTYPE" speedFactor="1.00" vaporized=""/>
    <tripinfo id="560" depart="89.00" departLane="U11V11_0" departPos="5.10" departSpeed="0.00" departDelay="0.94" arrival="310.00" arrivalLane="X13X14_0" arrivalPos="485.60" arrivalSpeed="13.89" duration="221.00" routeLength="2980.29" waitingTime="0.00" waitingCount="0" stopTime="0.00" timeLoss="5.34" rerouteNo="0" devices="tripinfo_560" vType="DEFAULT_VEHTYPE" speedFactor="1.00" vaporized=""/>
    <tripinfo id="116" depart="19.00" departLane="O14O15_0" departPos="5.10" departSpeed="0.00" departDelay="0.76" arrival="315.00" arrivalLane="Q11R11_0" arrivalPos="485.60" arrivalSpeed="13.89" duration="296.00" routeLength="3969.56" waitingTime="0.00" waitingCount="0" stopTime="0.00" timeLoss="7.39" rerouteNo="0" devices="tripinfo_116" vType="DEFAULT_VEHTYPE" speedFactor="1.00" vaporized=""/>
    <tripinfo id="120" depart="19.00" departLane="K11K12_0" departPos="5.10" departSpeed="0.00" departDelay="0.13" arrival="316.00" arrivalLane="N9M9_0" arrivalPos="485.60" arrivalSpeed="13.89" duration="297.00" routeLength="3964.39" waitingTime="0.00" waitingCount="0" stopTime="0.00" timeLoss="9.17" rerouteNo="0" devices="tripinfo_120" vType="DEFAULT_VEHTYPE" speedFactor="1.00" vaporized=""/>
    <tripinfo id="603" depart="98.00" departLane="I14I15_0" departPos="5.10" departSpeed="0.00" departDelay="3.18" arrival="320.00" arrivalLane="I11H11_0" arrivalPos="485.60" arrivalSpeed="13.89" duration="222.00" routeLength="2965.40" waitingTime="0.00" waitingCount="0" stopTime="0.00" timeLoss="6.47" rerouteNo="0" devices="tripinfo_603" vType="DEFAULT_VEHTYPE" speedFactor="1.00" vaporized=""/>
    <tripinfo id="872" depart="139.00" departLane="V7U7_0" departPos="5.10" departSpeed="0.00" departDelay="1.88" arrival="322.00" arrivalLane="U4U3_0" arrivalPos="485.60" arrivalSpeed="13.89" duration="183.00" routeLength="2480.29" waitingTime="0.00" waitingCount="0" stopTime="0.00" timeLoss="3.39" rerouteNo="0" devices="tripinfo_872" vType="DEFAULT_VEHTYPE" speedFactor="1.00" vaporized=""/>
    <tripinfo id="640" depart="101.00" departLane="B5B4_0" departPos="5.10" departSpeed="0.00" departDelay="0.36" arrival="323.00" arrivalLane="C1C0_0" arrivalPos="485.60" arrivalSpeed="13.89" duration="222.00" routeLength="2974.93" waitingTime="0.00" waitingCount="0" stopTime="0.00" timeLoss="5.11" rerouteNo="0" devices="tripinfo_640" vType="DEFAULT_VEHTYPE" speedFactor="1.00" vaporized=""/>
    <tripinfo id="880" depart="139.00" departLane="P17Q17_0" departPos="5.10" departSpeed="0.00" departDelay="0.62" arrival="324.00" arrivalLane="Q20R20_0" arrivalPos="485.60" arrivalSpeed="13.89" duration="185.00" routeLength="2474.92" waitingTime="0.00" waitingCount="0" stopTime="0.00" timeLoss="4.63" rerouteNo="0" devices="tripinfo_880" vType="DEFAULT_VEHTYPE" speedFactor="1.00" vaporized=""/>