<?xml version="1.0" encoding="UTF-8"?>

<!-- generated on 2026-07-08 05:48:58 by Eclipse SUMO sumo Version 1.20.0
<configuration xmlns:xsi="http://www.w3.org/2001/XMLSchema-instance" xsi:noNamespaceSchemaLocation="http://sumo.dlr.de/xsd/sumoConfiguration.xsd">

    <input>
        <net-file value="net.net.xml"/>
        <route-files value="rou.rou.xml"/>
    </input>

    <output>
        <precision value="6"/>
        <fcd-output value="golden.fcd.xml"/>
        <fcd-output.acceleration value="true"/>
        <save-state.times value="1"/>
        <save-state.files value="golden.state.xml"/>
    </output>

    <time>
        <begin value="0"/>
        <end value="250"/>
        <step-length value="1"/>
    </time>

    <processing>
        <step-method.ballistic value="false"/>
        <time-to-teleport value="-1"/>
        <default.action-step-length value="1"/>
        <default.speeddev value="0"/>
    </processing>

    <report>
        <no-step-log value="true"/>
    </report>

    <random_number>
        <seed value="42"/>
    </random_number>

</configuration>
-->

<fcd-export xmlns:xsi="http://www.w3.org/2001/XMLSchema-instance" xsi:noNamespaceSchemaLocation="http://sumo.dlr.de/xsd/fcd_file.xsd">
    <timestep time="0.000">
        <vehicle id="follow" x="0.000000" y="-1.600000" angle="90.000000" type="idmm" speed="0.000000" pos="0.000000" lane="e0_0" slope="0.000000" acceleration="0.000000"/>
        <vehicle id="lead" x="200.000000" y="-1.600000" angle="90.000000" type="lead" speed="0.000000" pos="200.000000" lane="e0_0" slope="0.000000" acceleration="0.000000"/>
    </timestep>
    <timestep time="1.000">
        <vehicle id="follow" x="2.598698" y="-1.600000" angle="90.000000" type="idmm" speed="2.598698" pos="2.598698" lane="e0_0" slope="0.000000" acceleration="2.598698"/>
        <vehicle id="lead" x="202.591249" y="-1.600000" angle="90.000000" type="lead" speed="2.591249" pos="202.591249" lane="e0_0" slope="0.000000" acceleration="2.591249"/>
    </timestep>
    <timestep time="2.000">
        <vehicle id="follow" x="7.780068" y="-1.600000" angle="90.000000" type="idmm" speed="5.181370" pos="7.780068" lane="e0_0" slope="0.000000" acceleration="2.582673"/>
        <vehicle id="lead" x="207.418835" y="-1.600000" angle="90.000000" type="lead" speed="4.827586" pos="207.418835" lane="e0_0" slope="0.000000" acceleration="2.236337"/>
    </timestep>
    <timestep time="3.000">
        <vehicle id="follow" x="15.448322" y="-1.600000" angle="90.000000" type="idmm" speed="7.668254" pos="15.448322" lane="e0_0" slope="0.000000" acceleration="2.486884"/>
        <vehicle id="lead" x="213.228303" y="-1.600000" angle="90.000000" type="lead" speed="5.809468" pos="213.228303" lane="e0_0" slope="0.000000" acceleration="0.981882"/>
    </timestep>
    <timestep time="4.000">
        <vehicle id="follow" x="25.320207" y="-1.600000" angle="90.000000" type="idmm" speed="9.871886" pos="25.320207" lane="e0_0" slope="0.000000" acceleration="2.203632"/>
        <vehicle id="lead" x="219.207123" y="-1.600000" angle="90.000000" type="lead" speed="5.978820" pos="219.207123" lane="e0_0" slope="0.000000" acceleration="0.169352"/>
    </timestep>
    <timestep time="5.000">
        <vehicle id="follow" x="36.883896" y="-1.600000" angle="90.000000" type="idmm" speed="11.563689" pos="36.883896" lane="e0_0" slope="0.000000" acceleration="1.691803"/>
        <vehicle id="lead" x="225.204921" y="-1.600000" angle="90.000000" type="lead" speed="5.997798" pos="225.204921" lane="e0_0" slope="0.000000" acceleration="0.018978"/>
    </timestep>
    <timestep time="6.000">
        <vehicle id="follow" x="49.534459" y="-1.600000" angle="90.000000" type="idmm" speed="12.650563" pos="49.534459" lane="e0_0" slope="0.000000" acceleration="1.086874"/>
        <vehicle id="lead" x="231.204693" y="-1.600000" angle="90.000000" type="lead" speed="5.999773" pos="231.204693" lane="e0_0" slope="0.000000" acceleration="0.001975"/>
    </timestep>
    <timestep time="7.000">
        <vehicle id="follow" x="62.776570" y="-1.600000" angle="90.000000" type="idmm" speed="13.242111" pos="62.776570" lane="e0_0" slope="0.000000" acceleration="0.591548"/>
        <vehicle id="lead" x="237.204670" y="-1.600000" angle="90.000000" type="lead" speed="5.999977" pos="237.204670" lane="e0_0" slope="0.000000" acceleration="0.000204"/>
    </timestep>
    <timestep time="8.000">
        <vehicle id="follow" x="76.302794" y="-1.600000" angle="90.000000" type="idmm" speed="13.526224" pos="76.302794" lane="e0_0" slope="0.000000" acceleration="0.284113"/>
        <vehicle id="lead" x="243.204668" y="-1.600000" angle="90.000000" type="lead" speed="5.999998" pos="243.204668" lane="e0_0" slope="0.000000" acceleration="0.000021"/>
    </timestep>
    <timestep time="9.000">
        <vehicle id="follow" x="89.952650" y="-1.600000" angle="90.000000" type="idmm" speed="13.649856" pos="89.952650" lane="e0_0" slope="0.000000" acceleration="0.123632"/>
        <vehicle id="lead" x="249.204667" y="-1.600000" angle="90.000000" type="lead" speed="6.000000" pos="249.204667" lane="e0_0" slope="0.000000" acceleration="0.000002"/>
    </timestep>
    <timestep time="10.000">
        <vehicle id="follow" x="103.649347" y="-1.600000" angle="90.000000" type="idmm" speed="13.696697" pos="103.649347" lane="e0_0" slope="0.000000" acceleration="0.046841"/>
        <vehicle id="lead" x="255.204667" y="-1.600000" angle="90.000000" type="lead" speed="6.000000" pos="255.204667" lane="e0_0" slope="0.000000" acceleration="0.000000"/>
    </timestep>
    <timestep time="11.000">
        <vehicle id="follow" x="117.357001" y="-1.600000" angle="90.000000" type="idmm" speed="13.707654" pos="117.357001" lane="e0_0" slope="0.000000" acceleration="0.010957"/>
        <vehicle id="lead" x="261.204667" y="-1.600000" angle="90.000000" type="lead" speed="6.000000" pos="261.204667" lane="e0_0" slope="0.000000" acceleration="0.000000"/>
    </timestep>
    <timestep time="12.000">
        <vehicle id="follow" x="131.058197" y="-1.600000" angle="90.000000" type="idmm" speed="13.701197" pos="131.058197" lane="e0_0" slope="0.000000" acceleration="-0.006457"/>
        <vehicle id="lead" x="267.204667" y="-1.600000" angle="90.000000" type="lead" speed="6.000000" pos="267.204667" lane="e0_0" slope="0.000000" acceleration="0.000000"/>
    </timestep>
    <timestep time="13.000">
        <vehicle id="follow" x="144.743361" y="-1.600000" angle="90.000000" type="idmm" speed="13.685164" pos="144.743361" lane="e0_0" slope="0.000000" acceleration="-0.016033"/>
        <vehicle id="lead" x="273.204667" y="-1.600000" angle="90.000000" type="lead" speed="6.000000" pos="273.204667" lane="e0_0" slope="0.000000" acceleration="0.000000"/>
    </timestep>
    <timestep time="14.000">
        <vehicle id="follow" x="158.405872" y="-1.600000" angle="90.000000" type="idmm" speed="13.662510" pos="158.405872" lane="e0_0" slope="0.000000" acceleration="-0.022654"/>
        <vehicle id="lead" x="279.204667" y="-1.600000" angle="90.000000" type="lead" speed="6.000000" pos="279.204667" lane="e0_0" slope="0.000000" acceleration="0.000000"/>
    </timestep>
    <timestep time="15.000">
        <vehicle id="follow" x="172.039762" y="-1.600000" angle="90.000000" type="idmm" speed="13.633890" pos="172.039762" lane="e0_0" slope="0.000000" acceleration="-0.028620"/>
        <vehicle id="lead" x="285.204667" y="-1.600000" angle="90.000000" type="lead" speed="6.000000" pos="285.204667" lane="e0_0" slope="0.000000" acceleration="0.000000"/>
    </timestep>
    <timestep time="16.000">
        <vehicle id="follow" x="185.638514" y="-1.600000" angle="90.000000" type="idmm" speed="13.598752" pos="185.638514" lane="e0_0" slope="0.000000" acceleration="-0.035138"/>
        <vehicle id="lead" x="291.204667" y="-1.600000" angle="90.000000" type="lead" speed="6.000000" pos="291.204667" lane="e0_0" slope="0.000000" acceleration="0.000000"/>
    </timestep>
    <timestep time="17.000">
        <vehicle id="follow" x="199.194244" y="-1.600000" angle="90.000000" type="idmm" speed="13.555730" pos="199.194244" lane="e0_0" slope="0.000000" acceleration="-0.043022"/>
        <vehicle id="lead" x="297.204667" y="-1.600000" angle="90.000000" type="lead" speed="6.000000" pos="297.204667" lane="e0_0" slope="0.000000" acceleration="0.000000"/>
    </timestep>
    <timestep time="18.000">
        <vehicle id="follow" x="212.696943" y="-1.600000" angle="90.000000" type="idmm" speed="13.502699" pos="212.696943" lane="e0_0" slope="0.000000" acceleration="-0.053031"/>
        <vehicle id="lead" x="303.204667" y="-1.600000" angle="90.000000" type="lead" speed="6.000000" pos="303.204667" lane="e0_0" slope="0.000000" acceleration="0.000000"/>
    </timestep>
    <timestep time="19.000">
        <vehicle id="follow" x="226.133564" y="-1.600000" angle="90.000000" type="idmm" speed="13.436621" pos="226.133564" lane="e0_0" slope="0.000000" acceleration="-0.066078"/>
        <vehicle id="lead" x="309.204667" y="-1.600000" angle="90.000000" type="lead" speed="6.000000" pos="309.204667" lane="e0_0" slope="0.000000" acceleration="0.000000"/>
    </timestep>
    <timestep time="20.000">
        <vehicle id="follow" x="239.486783" y="-1.600000" angle="90.000000" type="idmm" speed="13.353219" pos="239.486783" lane="e0_0" slope="0.000000" acceleration="-0.083402"/>
        <vehicle id="lead" x="315.204667" y="-1.600000" angle="90.000000" type="lead" speed="6.000000" pos="315.204667" lane="e0_0" slope="0.000000" acceleration="0.000000"/>
    </timestep>
    <timestep time="21.000">
        <vehicle id="follow" x="252.733234" y="-1.600000" angle="90.000000" type="idmm" speed="13.246451" pos="252.733234" lane="e0_0" slope="0.000000" acceleration="-0.106768"/>
        <vehicle id="lead" x="321.204667" y="-1.600000" angle="90.000000" type="lead" speed="6.000000" pos="321.204667" lane="e0_0" slope="0.000000" acceleration="0.000000"/>
    </timestep>
    <timestep time="22.000">
        <vehicle id="follow" x="265.840966" y="-1.600000" angle="90.000000" type="idmm" speed="13.107732" pos="265.840966" lane="e0_0" slope="0.000000" acceleration="-0.138719"/>
        <vehicle id="lead" x="327.204667" y="-1.600000" angle="90.000000" type="lead" speed="6.000000" pos="327.204667" lane="e0_0" slope="0.000000" acceleration="0.000000"/>
    </timestep>
    <timestep time="23.000">
        <vehicle id="follow" x="278.765816" y="-1.600000" angle="90.000000" type="idmm" speed="12.924849" pos="278.765816" lane="e0_0" slope="0.000000" acceleration="-0.182883"/>
        <vehicle id="lead" x="333.204667" y="-1.600000" angle="90.000000" type="lead" speed="6.000000" pos="333.204667" lane="e0_0" slope="0.000000" acceleration="0.000000"/>
    </timestep>
    <timestep time="24.000">
        <vehicle id="follow" x="291.446432" y="-1.600000" angle="90.000000" type="idmm" speed="12.680617" pos="291.446432" lane="e0_0" slope="0.000000" acceleration="-0.244233"/>
        <vehicle id="lead" x="339.204667" y="-1.600000" angle="90.000000" type="lead" speed="6.000000" pos="339.204667" lane="e0_0" slope="0.000000" acceleration="0.000000"/>
    </timestep>
    <timestep time="25.000">
        <vehicle id="follow" x="303.798154" y="-1.600000" angle="90.000000" type="idmm" speed="12.351721" pos="303.798154" lane="e0_0" slope="0.000000" acceleration="-0.328895"/>
        <vehicle id="lead" x="345.204667" y="-1.600000" angle="90.000000" type="lead" speed="6.000000" pos="345.204667" lane="e0_0" slope="0.000000" acceleration="0.000000"/>
    </timestep>
    <timestep time="26.000">
        <vehicle id="follow" x="315.707410" y="-1.600000" angle="90.000000" type="idmm" speed="11.909256" pos="315.707410" lane="e0_0" slope="0.000000" acceleration="-0.442465"/>
        <vehicle id="lead" x="351.204667" y="-1.600000" angle="90.000000" type="lead" speed="6.000000" pos="351.204667" lane="e0_0" slope="0.000000" acceleration="0.000000"/>
    </timestep>
    <timestep time="27.000">
        <vehicle id="follow" x="327.031950" y="-1.600000" angle="90.000000" type="idmm" speed="11.324541" pos="327.031950" lane="e0_0" slope="0.000000" acceleration="-0.584716"/>
        <vehicle id="lead" x="357.204667" y="-1.600000" angle="90.000000" type="lead" speed="6.000000" pos="357.204667" lane="e0_0" slope="0.000000" acceleration="0.000000"/>
    </timestep>
    <timestep time="28.000">
        <vehicle id="follow" x="337.617398" y="-1.600000" angle="90.000000" type="idmm" speed="10.585447" pos="337.617398" lane="e0_0" slope="0.000000" acceleration="-0.739093"/>
        <vehicle id="lead" x="363.204667" y="-1.600000" angle="90.000000" type="lead" speed="6.000000" pos="363.204667" lane="e0_0" slope="0.000000" acceleration="0.000000"/>
    </timestep>
    <timestep time="29.000">
        <vehicle id="follow" x="347.339790" y="-1.600000" angle="90.000000" type="idmm" speed="9.722392" pos="347.339790" lane="e0_0" slope="0.000000" acceleration="-0.863055"/>
        <vehicle id="lead" x="369.204667" y="-1.600000" angle="90.000000" type="lead" speed="6.000000" pos="369.204667" lane="e0_0" slope="0.000000" acceleration="0.000000"/>
    </timestep>
    <timestep time="30.000">
        <vehicle id="follow" x="356.161791" y="-1.600000" angle="90.000000" type="idmm" speed="8.822001" pos="356.161791" lane="e0_0" slope="0.000000" acceleration="-0.900391"/>
        <vehicle id="lead" x="375.204667" y="-1.600000" angle="90.000000" type="lead" speed="6.000000" pos="375.204667" lane="e0_0" slope="0.000000" acceleration="0.000000"/>
    </timestep>
    <timestep time="31.000">
        <vehicle id="follow" x="364.158794" y="-1.600000" angle="90.000000" type="idmm" speed="7.997003" pos="364.158794" lane="e0_0" slope="0.000000" acceleration="-0.824998"/>
        <vehicle id="lead" x="381.204667" y="-1.600000" angle="90.000000" type="lead" speed="6.000000" pos="381.204667" lane="e0_0" slope="0.000000" acceleration="0.000000"/>
    </timestep>
    <timestep time="32.000">
        <vehicle id="follow" x="371.487385" y="-1.600000" angle="90.000000" type="idmm" speed="7.328591" pos="371.487385" lane="e0_0" slope="0.000000" acceleration="-0.668412"/>
        <vehicle id="lead" x="387.204667" y="-1.600000" angle="90.000000" type="lead" speed="6.000000" pos="387.204667" lane="e0_0" slope="0.000000" acceleration="0.000000"/>
    </timestep>
    <timestep time="33.000">
        <vehicle id="follow" x="378.326440" y="-1.600000" angle="90.000000" type="idmm" speed="6.839055" pos="378.326440" lane="e0_0" slope="0.000000" acceleration="-0.489536"/>
        <vehicle id="lead" x="393.204667" y="-1.600000" angle="90.000000" type="lead" speed="6.000000" pos="393.204667" lane="e0_0" slope="0.000000" acceleration="0.000000"/>
    </timestep>
    <timestep time="34.000">
        <vehicle id="follow" x="384.833768" y="-1.600000" angle="90.000000" type="idmm" speed="6.507328" pos="384.833768" lane="e0_0" slope="0.000000" acceleration="-0.331726"/>
        <vehicle id="lead" x="399.204667" y="-1.600000" angle="90.000000" type="lead" speed="6.000000" pos="399.204667" lane="e0_0" slope="0.000000" acceleration="0.000000"/>
    </timestep>
    <timestep time="35.000">
        <vehicle id="follow" x="391.129370" y="-1.600000" angle="90.000000" type="idmm" speed="6.295602" pos="391.129370" lane="e0_0" slope="0.000000" acceleration="-0.211726"/>
        <vehicle id="lead" x="405.204667" y="-1.600000" angle="90.000000" type="lead" speed="6.000000" pos="405.204667" lane="e0_0" slope="0.000000" acceleration="0.000000"/>
    </timestep>
    <timestep time="36.000">
        <vehicle id="follow" x="397.296053" y="-1.600000" angle="90.000000" type="idmm" speed="6.166683" pos="397.296053" lane="e0_0" slope="0.000000" acceleration="-0.128919"/>
        <vehicle id="lead" x="411.204667" y="-1.600000" angle="90.000000" type="lead" speed="6.000000" pos="411.204667" lane="e0_0" slope="0.000000" acceleration="0.000000"/>
    </timestep>
    <timestep time="37.000">
        <vehicle id="follow" x="403.387114" y="-1.600000" angle="90.000000" type="idmm" speed="6.091061" pos="403.387114" lane="e0_0" slope="0.000000" acceleration="-0.075622"/>
        <vehicle id="lead" x="417.204667" y="-1.600000" angle="90.000000" type="lead" speed="6.000000" pos="417.204667" lane="e0_0" slope="0.000000" acceleration="0.000000"/>
    </timestep>
    <timestep time="38.000">
        <vehicle id="follow" x="409.435094" y="-1.600000" angle="90.000000" type="idmm" speed="6.047980" pos="409.435094" lane="e0_0" slope="0.000000" acceleration="-0.043081"/>
        <vehicle id="lead" x="423.204667" y="-1.600000" angle="90.000000" type="lead" speed="6.000000" pos="423.204667" lane="e0_0" slope="0.000000" acceleration="0.000000"/>
    </timestep>
    <timestep time="39.000">
        <vehicle id="follow" x="415.459072" y="-1.600000" angle="90.000000" type="idmm" speed="6.023978" pos="415.459072" lane="e0_0" slope="0.000000" acceleration="-0.024002"/>
        <vehicle id="lead" x="429.204667" y="-1.600000" angle="90.000000" type="lead" speed="6.000000" pos="429.204667" lane="e0_0" slope="0.000000" acceleration="0.000000"/>
    </timestep>
    <timestep time="40.000">
        <vehicle id="follow" x="421.469896" y="-1.600000" angle="90.000000" type="idmm" speed="6.010824" pos="421.469896" lane="e0_0" slope="0.000000" acceleration="-0.013154"/>
        <vehicle id="lead" x="435.204667" y="-1.600000" angle="90.000000" type="lead" speed="6.000000" pos="435.204667" lane="e0_0" slope="0.000000" acceleration="0.000000"/>
    </timestep>
    <timestep time="41.000">
        <vehicle id="follow" x="427.473595" y="-1.600000" angle="90.000000" type="idmm" speed="6.003700" pos="427.473595" lane="e0_0" slope="0.000000" acceleration="-0.007124"/>
        <vehicle id="lead" x="441.204667" y="-1.600000" angle="90.000000" type="lead" speed="6.000000" pos="441.204667" lane="e0_0" slope="0.000000" acceleration="0.000000"/>
    </timestep>
    <timestep time="42.000">
        <vehicle id="follow" x="433.473469" y="-1.600000" angle="90.000000" type="idmm" speed="5.999874" pos="433.473469" lane="e0_0" slope="0.000000" acceleration="-0.003826"/>
        <vehicle id="lead" x="447.204667" y="-1.600000" angle="90.000000" type="lead" speed="6.000000" pos="447.204667" lane="e0_0" slope="0.000000" acceleration="0.000000"/>
    </timestep>
    <timestep time="43.000">
        <vehicle id="follow" x="439.471048" y="-1.600000" angle="90.000000" type="idmm" speed="5.997579" pos="439.471048" lane="e0_0" slope="0.000000" acceleration="-0.002294"/>
        <vehicle id="lead" x="453.204667" y="-1.600000" angle="90.000000" type="lead" speed="6.000000" pos="453.204667" lane="e0_0" slope="0.000000" acceleration="0.000000"/>
    </timestep>
    <timestep time="44.000">
        <vehicle id="follow" x="445.467290" y="-1.600000" angle="90.000000" type="idmm" speed="5.996242" pos="445.467290" lane="e0_0" slope="0.000000" acceleration="-0.001337"/>
        <vehicle id="lead" x="459.204667" y="-1.600000" angle="90.000000" type="lead" speed="6.000000" pos="459.204667" lane="e0_0" slope="0.000000" acceleration="0.000000"/>
    </timestep>
    <timestep time="45.000">
        <vehicle id="follow" x="451.462932" y="-1.600000" angle="90.000000" type="idmm" speed="5.995641" pos="451.462932" lane="e0_0" slope="0.000000" acceleration="-0.000601"/>
        <vehicle id="lead" x="465.204667" y="-1.600000" angle="90.000000" type="lead" speed="6.000000" pos="465.204667" lane="e0_0" slope="0.000000" acceleration="0.000000"/>
    </timestep>
    <timestep time="46.000">
        <vehicle id="follow" x="457.458382" y="-1.600000" angle="90.000000" type="idmm" speed="5.995450" pos="457.458382" lane="e0_0" slope="0.000000" acceleration="-0.000191"/>
        <vehicle id="lead" x="471.204667" y="-1.600000" angle="90.000000" type="lead" speed="6.000000" pos="471.204667" lane="e0_0" slope="0.000000" acceleration="0.000000"/>
    </timestep>
    <timestep time="47.000">
        <vehicle id="follow" x="463.453818" y="-1.600000" angle="90.000000" type="idmm" speed="5.995435" pos="463.453818" lane="e0_0" slope="0.000000" acceleration="-0.000015"/>
        <vehicle id="lead" x="477.204667" y="-1.600000" angle="90.000000" type="lead" speed="6.000000" pos="477.204667" lane="e0_0" slope="0.000000" acceleration="0.000000"/>
    </timestep>
    <timestep time="48.000">
        <vehicle id="follow" x="469.449291" y="-1.600000" angle="90.000000" type="idmm" speed="5.995473" pos="469.449291" lane="e0_0" slope="0.000000" acceleration="0.000038"/>
        <vehicle id="lead" x="483.204667" y="-1.600000" angle="90.000000" type="lead" speed="6.000000" pos="483.204667" lane="e0_0" slope="0.000000" acceleration="0.000000"/>
    </timestep>
    <timestep time="49.000">
        <vehicle id="follow" x="475.444804" y="-1.600000" angle="90.000000" type="idmm" speed="5.995513" pos="475.444804" lane="e0_0" slope="0.000000" acceleration="0.000040"/>
        <vehicle id="lead" x="489.204667" y="-1.600000" angle="90.000000" type="lead" speed="6.000000" pos="489.204667" lane="e0_0" slope="0.000000" acceleration="0.000000"/>
    </timestep>
    <timestep time="50.000">
        <vehicle id="follow" x="481.440345" y="-1.600000" angle="90.000000" type="idmm" speed="5.995541" pos="481.440345" lane="e0_0" slope="0.000000" acceleration="0.000028"/>
        <vehicle id="lead" x="495.204667" y="-1.600000" angle="90.000000" type="lead" speed="6.000000" pos="495.204667" lane="e0_0" slope="0.000000" acceleration="0.000000"/>
    </timestep>
    <timestep time="51.000">
        <vehicle id="follow" x="487.435904" y="-1.600000" angle="90.000000" type="idmm" speed="5.995559" pos="487.435904" lane="e0_0" slope="0.000000" acceleration="0.000018"/>
        <vehicle id="lead" x="501.204667" y="-1.600000" angle="90.000000" type="lead" speed="6.000000" pos="501.204667" lane="e0_0" slope="0.000000" acceleration="0.000000"/>
    </timestep>
    <timestep time="52.000">
        <vehicle id="follow" x="493.431475" y="-1.600000" angle="90.000000" type="idmm" speed="5.995570" pos="493.431475" lane="e0_0" slope="0.000000" acceleration="0.000011"/>
        <vehicle id="lead" x="507.204667" y="-1.600000" angle="90.000000" type="lead" speed="6.000000" pos="507.204667" lane="e0_0" slope="0.000000" acceleration="0.000000"/>
    </timestep>
    <timestep time="53.000">
        <vehicle id="follow" x="499.427054" y="-1.600000" angle="90.000000" type="idmm" speed="5.995579" pos="499.427054" lane="e0_0" slope="0.000000" acceleration="0.000008"/>
        <vehicle id="lead" x="513.204667" y="-1.600000" angle="90.000000" type="lead" speed="6.000000" pos="513.204667" lane="e0_0" slope="0.000000" acceleration="0.000000"/>
    </timestep>
    <timestep time="54.000">
        <vehicle id="follow" x="505.422639" y="-1.600000" angle="90.000000" type="idmm" speed="5.995586" pos="505.422639" lane="e0_0" slope="0.000000" acceleration="0.000007"/>
        <vehicle id="lead" x="519.204667" y="-1.600000" angle="90.000000" type="lead" speed="6.000000" pos="519.204667" lane="e0_0" slope="0.000000" acceleration="0.000000"/>
    </timestep>
    <timestep time="55.000">
        <vehicle id="follow" x="511.418232" y="-1.600000" angle="90.000000" type="idmm" speed="5.995593" pos="511.418232" lane="e0_0" slope="0.000000" acceleration="0.000007"/>
        <vehicle id="lead" x="525.204667" y="-1.600000" angle="90.000000" type="lead" speed="6.000000" pos="525.204667" lane="e0_0" slope="0.000000" acceleration="0.000000"/>
    </timestep>
    <timestep time="56.000">
        <vehicle id="follow" x="517.413832" y="-1.600000" angle="90.000000" type="idmm" speed="5.995600" pos="517.413832" lane="e0_0" slope="0.000000" acceleration="0.000007"/>
        <vehicle id="lead" x="531.204667" y="-1.600000" angle="90.000000" type="lead" speed="6.000000" pos="531.204667" lane="e0_0" slope="0.000000" acceleration="0.000000"/>
    </timestep>
    <timestep time="57.000">
        <vehicle id="follow" x="523.409439" y="-1.600000" angle="90.000000" type="idmm" speed="5.995607" pos="523.409439" lane="e0_0" slope="0.000000" acceleration="0.000007"/>
        <vehicle id="lead" x="537.204667" y="-1.600000" angle="90.000000" type="lead" speed="6.000000" pos="537.204667" lane="e0_0" slope="0.000000" acceleration="0.000000"/>
    </timestep>
    <timestep time="58.000">
        <vehicle id="follow" x="529.405053" y="-1.600000" angle="90.000000" type="idmm" speed="5.995614" pos="529.405053" lane="e0_0" slope="0.000000" acceleration="0.000007"/>
        <vehicle id="lead" x="543.204667" y="-1.600000" angle="90.000000" type="lead" speed="6.000000" pos="543.204667" lane="e0_0" slope="0.000000" acceleration="0.000000"/>
    </timestep>
    <timestep time="59.000">
        <vehicle id="follow" x="535.400674" y="-1.600000" angle="90.000000" type="idmm" speed="5.995621" pos="535.400674" lane="e0_0" slope="0.000000" acceleration="0.000007"/>
        <vehicle id="lead" x="549.204667" y="-1.600000" angle="90.000000" type="lead" speed="6.000000" pos="549.204667" lane="e0_0" slope="0.000000" acceleration="0.000000"/>
    </timestep>
    <timestep time="60.000">
        <vehicle id="follow" x="541.396303" y="-1.600000" angle="90.000000" type="idmm" speed="5.995629" pos="541.396303" lane="e0_0" slope="0.000000" acceleration="0.000007"/>
        <vehicle id="lead" x="555.204667" y="-1.600000" angle="90.000000" type="lead" speed="6.000000" pos="555.204667" lane="e0_0" slope="0.000000" acceleration="0.000000"/>
    </timestep>
    <timestep time="61.000">
        <vehicle id="follow" x="547.391939" y="-1.600000" angle="90.000000" type="idmm" speed="5.995636" pos="547.391939" lane="e0_0" slope="0.000000" acceleration="0.000007"/>
        <vehicle id="lead" x="561.204667" y="-1.600000" angle="90.000000" type="lead" speed="6.000000" pos="561.204667" lane="e0_0" slope="0.000000" acceleration="0.000000"/>
    </timestep>
    <timestep time="62.000">
        <vehicle id="follow" x="553.387582" y="-1.600000" angle="90.000000" type="idmm" speed="5.995643" pos="553.387582" lane="e0_0" slope="0.000000" acceleration="0.000007"/>
        <vehicle id="lead" x="567.204667" y="-1.600000" angle="90.000000" type="lead" speed="6.000000" pos="567.204667" lane="e0_0" slope="0.000000" acceleration="0.000000"/>
    </timestep>
    <timestep time="63.000">
        <vehicle id="follow" x="559.383233" y="-1.600000" angle="90.000000" type="idmm" speed="5.995651" pos="559.383233" lane="e0_0" slope="0.000000" acceleration="0.000007"/>
        <vehicle id="lead" x="573.204667" y="-1.600000" angle="90.000000" type="lead" speed="6.000000" pos="573.204667" lane="e0_0" slope="0.000000" acceleration="0.000000"/>
    </timestep>
    <timestep time="64.000">
        <vehicle id="follow" x="565.378891" y="-1.600000" angle="90.000000" type="idmm" speed="5.995658" pos="565.378891" lane="e0_0" slope="0.000000" acceleration="0.000007"/>
        <vehicle id="lead" x="579.204667" y="-1.600000" angle="90.000000" type="lead" speed="6.000000" pos="579.204667" lane="e0_0" slope="0.000000" acceleration="0.000000"/>
    </timestep>
    <timestep time="65.000">
        <vehicle id="follow" x="571.374556" y="-1.600000" angle="90.000000" type="idmm" speed="5.995665" pos="571.374556" lane="e0_0" slope="0.000000" acceleration="0.000007"/>
        <vehicle id="lead" x="585.204667" y="-1.600000" angle="90.000000" type="lead" speed="6.000000" pos="585.204667" lane="e0_0" slope="0.000000" acceleration="0.000000"/>
    </timestep>
    <timestep time="66.000">
        <vehicle id="follow" x="577.370228" y="-1.600000" angle="90.000000" type="idmm" speed="5.995672" pos="577.370228" lane="e0_0" slope="0.000000" acceleration="0.000007"/>
        <vehicle id="lead" x="591.204667" y="-1.600000" angle="90.000000" type="lead" speed="6.000000" pos="591.204667" lane="e0_0" slope="0.000000" acceleration="0.000000"/>
    </timestep>
    <timestep time="67.000">
        <vehicle id="follow" x="583.365907" y="-1.600000" angle="90.000000" type="idmm" speed="5.995679" pos="583.365907" lane="e0_0" slope="0.000000" acceleration="0.000007"/>
        <vehicle id="lead" x="597.204667" y="-1.600000" angle="90.000000" type="lead" speed="6.000000" pos="597.204667" lane="e0_0" slope="0.000000" acceleration="0.000000"/>
    </timestep>
    <timestep time="68.000">
        <vehicle id="follow" x="589.361594" y="-1.600000" angle="90.000000" type="idmm" speed="5.995687" pos="589.361594" lane="e0_0" slope="0.000000" acceleration="0.000007"/>
        <vehicle id="lead" x="603.204667" y="-1.600000" angle="90.000000" type="lead" speed="6.000000" pos="603.204667" lane="e0_0" slope="0.000000" acceleration="0.000000"/>
    </timestep>
    <timestep time="69.000">
        <vehicle id="follow" x="595.357288" y="-1.600000" angle="90.000000" type="idmm" speed="5.995694" pos="595.357288" lane="e0_0" slope="0.000000" acceleration="0.000007"/>
        <vehicle id="lead" x="609.204667" y="-1.600000" angle="90.000000" type="lead" speed="6.000000" pos="609.204667" lane="e0_0" slope="0.000000" acceleration="0.000000"/>
    </timestep>
    <timestep time="70.000">
        <vehicle id="follow" x="601.352989" y="-1.600000" angle="90.000000" type="idmm" speed="5.995701" pos="601.352989" lane="e0_0" slope="0.000000" acceleration="0.000007"/>
        <vehicle id="lead" x="615.204667" y="-1.600000" angle="90.000000" type="lead" speed="6.000000" pos="615.204667" lane="e0_0" slope="0.000000" acceleration="0.000000"/>
    </timestep>
    <timestep time="71.000">
        <vehicle id="follow" x="607.348697" y="-1.600000" angle="90.000000" type="idmm" speed="5.995708" pos="607.348697" lane="e0_0" slope="0.000000" acceleration="0.000007"/>
        <vehicle id="lead" x="621.204667" y="-1.600000" angle="90.000000" type="lead" speed="6.000000" pos="621.204667" lane="e0_0" slope="0.000000" acceleration="0.000000"/>
    </timestep>
    <timestep time="72.000">