<?xml version="1.0" encoding="UTF-8"?>

<!-- generated on 2026-07-08 15:12:43 by Eclipse SUMO sumo Version 1.20.0
<configuration xmlns:xsi="http://www.w3.org/2001/XMLSchema-instance" xsi:noNamespaceSchemaLocation="http://sumo.dlr.de/xsd/sumoConfiguration.xsd">

    <input>
        <net-file value="net.net.xml"/>
        <route-files value="rou.rou.xml"/>
    </input>

    <output>
        <summary-output value="summary.xml"/>
        <tripinfo-output value="tripinfo.xml"/>
    </output>

    <time>
        <begin value="0"/>
        <end value="1500"/>
        <step-length value="1"/>
    </time>

    <processing>
        <step-method.ballistic value="false"/>
        <time-to-teleport value="-1"/>
        <default.action-step-length value="1"/>
        <default.speeddev value="0"/>
    </processing>

    <report>
        <no-step-log value="true"/>
    </report>

    <random_number>
        <seed value="42"/>
    </random_number>

</configuration>
-->

<tripinfos xmlns:xsi="http://www.w3.org/2001/XMLSchema-instance" xsi:noNamespaceSchemaLocation="http://sumo.dlr.de/xsd/tripinfo_file.xsd">
    <tripinfo id="245" depart="15.00" departLane="F19F18_0" departPos="5.10" departSpeed="0.00" departDelay="0.70" arrival="90.00" arrivalLane="F18G18_0" arrivalPos="485.60" arrivalSpeed="13.89" duration="75.00" routeLength="980.30" waitingTime="0.00" waitingCount="0" stopTime="0.00" timeLoss="3.66" rerouteNo="0" devices="tripinfo_245" vType="DEFAULT_VEHTYPE" speedFactor="1.00" vaporized=""/>
    <tripinfo id="1238" depart="76.00" departLane="F11G11_0" departPos="5.10" departSpeed="0.00" departDelay="3.73" arrival="113.00" arrivalLane="F11G11_0" arrivalPos="485.60" arrivalSpeed="13.89" duration="37.00" routeLength="480.50" waitingTime="0.00" waitingCount="0" stopTime="0.00" timeLoss="2.19" rerouteNo="0" devices="tripinfo_1238" vType="DEFAULT_VEHTYPE" speedFactor="1.00" vaporized=""/>
    <tripinfo id="44" depart="3.00" departLane="C18C17_0" departPos="5.10" departSpeed="0.00" departDelay="0.43" arrival="116.00" arrivalLane="B17C17_0" arrivalPos="485.60" arrivalSpeed="13.89" duration="113.00" routeLength="1465.40" waitingTime="0.00" waitingCount="0" stopTime="0.00" timeLoss="6.16" rerouteNo="0" devices="tripinfo_44" vType="DEFAULT_VEHTYPE" speedFactor="1.00" vaporized=""/>
    <tripinfo id="1481" depart="88.00" departLane="W20X20_0" departPos="5.10" departSpeed="0.00" departDelay="1.55" arrival="126.00" arrivalLane="W20X20_0" arrivalPos="485.60" arrivalSpeed="12.80" duration="38.00" routeLength="480.50" waitingTime="0.00" waitingCount="0" stopTime="0.00" timeLoss="3.18" rerouteNo="0" devices="tripinfo_1481" vType="DEFAULT_VEHTYPE" speedFactor="1.00" vaporized=""/>
    <tripinfo id="271" depart="16.00" departLane="C5B5_0" departPos="5.10" departSpeed="0.00" departDelay="0.18" arrival="128.00" arrivalLane="A5A6_0" arrivalPos="485.60" arrivalSpeed="13.89" duration="112.00" routeLength="1475.13" waitingTime="0.00" waitingCount="0" stopTime="0.00" timeLoss="4.63" rerouteNo="0" devices="tripinfo_271" vType="DEFAULT_VEHTYPE" speedFactor="1.00" vaporized=""/>
    <tripinfo id="409" depart="24.00" departLane="R4Q4_0" departPos="5.10" departSpeed="0.00" departDelay="0.12" arrival="137.00" arrivalLane="Q5R5_0" arrivalPos="485.60" arrivalSpeed="13.89" duration="113.00" routeLength="1469.76" waitingTime="0.00" waitingCount="0" stopTime="0.00" timeLoss="5.30" rerouteNo="0" devices="tripinfo_409" vType="DEFAULT_VEHTYPE" speedFactor="1.00" vaporized=""/>
    <tripinfo id="424" depart="25.00" departLane="R12R11_0" departPos="5.10" departSpeed="0.00" departDelay="0.25" arrival="139.00" arrivalLane="S11S10_0" arrivalPos="485.60" arrivalSpeed="13.89" duration="114.00" routeLength="1474.93" waitingTime="0.00" waitingCount="0" stopTime="0.00" timeLoss="5.11" rerouteNo="0" devices="tripinfo_424" vType="DEFAULT_VEHTYPE" speedFactor="1.00" vaporized=""/>
    <tripinfo id="449" depart="27.00" departLane="N2N3_0" departPos="5.10" departSpeed="0.00" departDelay="0.79" arrival="139.00" arrivalLane="N4N3_0" arrivalPos="485.60" arrivalSpeed="13.89" duration="112.00" routeLength="1470.77" waitingTime="0.00" waitingCount="0" stopTime="0.00" timeLoss="5.24" rerouteNo="0" devices="tripinfo_449" vType="DEFAULT_VEHTYPE" speedFactor="1.00" vaporized=""/>
    <tripinfo id="466" depart="28.00" departLane="E18D18_0" departPos="5.10" departSpeed="0.00" departDelay="0.80" arrival="142.00" arrivalLane="D17D18_0" arrivalPos="485.60" arrivalSpeed="13.89" duration="114.00" routeLength="1470.56" waitingTime="0.00" waitingCount="0" stopTime="0.00" timeLoss="6.40" rerouteNo="0" devices="tripinfo_466" vType="DEFAULT_VEHTYPE" speedFactor="1.00" vaporized=""/>
    <tripinfo id="533" depart="32.00" departLane="P12O12_0" departPos="5.10" departSpeed="0.00" departDelay="0.89" arrival="144.00" arrivalLane="N12N11_0" arrivalPos="485.60" arrivalSpeed="13.89" duration="112.00" routeLength="1480.29" waitingTime="0.00" waitingCount="0" stopTime="0.00" timeLoss="4.31" rerouteNo="0" devices="tripinfo_533" vType="DEFAULT_VEHTYPE" speedFactor="1.00" vaporized=""/>
    <tripinfo id="602" depart="36.00" departLane="J21I21_0" departPos="5.10" departSpeed="0.00" departDelay="0.86" arrival="147.00" arrivalLane="H21G21_0" arrivalPos="485.60" arrivalSpeed="13.89" duration="111.00" routeLength="1480.50" waitingTime="0.00" waitingCount="0" stopTime="0.00" timeLoss="4.03" rerouteNo="0" devices="tripinfo_602" vType="DEFAULT_VEHTYPE" speedFactor="1.00" vaporized=""/>
    <tripinfo id="13" depart="1.00" departLane="C19C18_0" departPos="5.10" departSpeed="0.00" departDelay="0.24" arrival="149.00" arrivalLane="C20C21_0" arrivalPos="485.60" arrivalSpeed="13.89" duration="148.00" routeLength="1970.77" waitingTime="0.00" waitingCount="0" stopTime="0.00" timeLoss="5.23" rerouteNo="0" devices="tripinfo_13" vType="DEFAULT_VEHTYPE" speedFactor="1.00" vaporized=""/>
    <tripinfo id="1" depart="1.00" departLane="G3G2_0" departPos="5.10" departSpeed="0.00" departDelay="0.94" arrival="150.00" arrivalLane="F1G1_0" arrivalPos="485.60" arrivalSpeed="13.89" duration="149.00" routeLength="1965.40" waitingTime="0.00" waitingCount="0" stopTime="0.00" timeLoss="6.17" rerouteNo="0" devices="tripinfo_1" vType="DEFAULT_VEHTYPE" speedFactor="1.00" vaporized=""/>
    <tripinfo id="625" depart="37.00" departLane="M13L13_0" departPos="5.10" departSpeed="0.00" departDelay="0.52" arrival="150.00" arrivalLane="L12K12_0" arrivalPos="485.60" arrivalSpeed="13.89" duration="113.00" routeLength="1474.92" waitingTime="0.00" waitingCount="0" stopTime="0.00" timeLoss="4.63" rerouteNo="0" devices="tripinfo_625" vType="DEFAULT_VEHTYPE" speedFactor="1.00" vaporized=""/>
    <tripinfo id="654" depart="39.00" departLane="I4H4_0" departPos="5.10" departSpeed="0.00" departDelay="0.82" arrival="153.00" arrivalLane="I4I5_0" arrivalPos="485.60" arrivalSpeed="13.89" duration="114.00" routeLength="1470.56" waitingTime="0.00" waitingCount="0" stopTime="0.00" timeLoss="6.38" rerouteNo="0" devices="tripinfo_654" vType="DEFAULT_VEHTYPE" speedFactor="1.00" vaporized=""/>
    <tripinfo id="84" depart="5.00" departLane="F16E16_0" departPos="5.10" departSpeed="0.00" departDelay="0.10" arrival="155.00" arrivalLane="D17E17_0" arrivalPos="485.60" arrivalSpeed="13.89" duration="150.00" routeLength="1969.76" waitingTime="0.00" waitingCount="0" stopTime="0.00" timeLoss="6.30" rerouteNo="0" devices="tripinfo_84" vType="DEFAULT_VEHTYPE" speedFactor="1.00" vaporized=""/>
    <tripinfo id="89" depart="6.00" departLane="K14J14_0" departPos="5.10" departSpeed="0.00" departDelay="0.80" arrival="157.00" arrivalLane="L14L15_0" arrivalPos="485.60" arrivalSpeed="13.89" duration="151.00" routeLength="1970.56" waitingTime="0.00" waitingCount="0" stopTime="0.00" timeLoss="7.27" rerouteNo="0" devices="tripinfo_89" vType="DEFAULT_VEHTYPE" speedFactor="1.00" vaporized=""/>
    <tripinfo id="127" depart="8.00" departLane="X8X9_0" departPos="5.10" departSpeed="0.00" departDelay="0.59" arrival="158.00" arrivalLane="X7W7_0" arrivalPos="485.60" arrivalSpeed="13.89" duration="150.00" routeLength="1965.40" waitingTime="0.00" waitingCount="0" stopTime="0.00" timeLoss="6.47" rerouteNo="0" devices="tripinfo_127" vType="DEFAULT_VEHTYPE" speedFactor="1.00" vaporized=""/>
    <tripinfo id="130" depart="8.00" departLane="U8U9_0" departPos="5.10" departSpeed="0.00" departDelay="0.41" arrival="158.00" arrivalLane="U7V7_0" arrivalPos="485.60" arrivalSpeed="13.89" duration="150.00" routeLength="1970.57" waitingTime="0.00" waitingCount="0" stopTime="0.00" timeLoss="6.59" rerouteNo="0" devices="tripinfo_130" vType="DEFAULT_VEHTYPE" speedFactor="1.00" vaporized=""/>
    <tripinfo id="100" depart="6.00" departLane="X0X1_0" departPos="5.10" departSpeed="0.00" departDelay="0.16" arrival="159.00" arrivalLane="W0W1_0" arrivalPos="485.60" arrivalSpeed="13.89" duration="153.00" routeLength="1965.58" waitingTime="0.00" waitingCount="0" stopTime="0.00" timeLoss="8.79" rerouteNo="0" devices="tripinfo_100" vType="DEFAULT_VEHTYPE" speedFactor="1.00" vaporized=""/>
    <tripinfo id="1106" depart="65.00" departLane="T0S0_0" departPos="5.10" departSpeed="0.00" departDelay="0.44" arrival="174.00" arrivalLane="R0Q0_0" arrivalPos="485.60" arrivalSpeed="13.89" duration="109.00" routeLength="1480.50" waitingTime="0.00" waitingCount="0" stopTime="0.00" timeLoss="2.19" rerouteNo="0" devices="tripinfo_1106" vType="DEFAULT_VEHTYPE" speedFactor="1.00" vaporized=""/>
    <tripinfo id="440" depart="26.00" departLane="G14G13_0" departPos="5.10" departSpeed="0.00" departDelay="0.32" arrival="176.00" arrivalLane="G15F15_0" arrivalPos="485.60" arrivalSpeed="13.89" duration="150.00" routeLength="1970.57" waitingTime="0.00" waitingCount="0" stopTime="0.00" timeLoss="6.59" rerouteNo="0" devices="tripinfo_440" vType="DEFAULT_VEHTYPE" speedFactor="1.00" vaporized=""/>
    <tripinfo id="932" depart="55.00" departLane="E22D22_0" departPos="5.10" departSpeed="0.00" departDelay="0.59" arrival="177.00" arrivalLane="D21D20_0" arrivalPos="485.60" arrivalSpeed="13.89" duration="122.00" routeLength="1480.29" waitingTime="9.00" waitingCount="1" stopTime="0.00" timeLoss="14.19" rerouteNo="0" devices="tripinfo_932" vType="DEFAULT_VEHTYPE" speedFactor="1.00" vaporized=""/>
    <tripinfo id="1133" depart="67.00" departLane="T18U18_0" departPos="5.10" departSpeed="0.00" departDelay="0.86" arrival="178.00" arrivalLane="U19U20_0" arrivalPos="485.60" arrivalSpeed="13.89" duration="111.00" routeLength="1480.29" waitingTime="0.00" waitingCount="0" stopTime="0.00" timeLoss="3.39" rerouteNo="0" devices="tripinfo_1133" vType="DEFAULT_VEHTYPE" speedFactor="1.00" vaporized=""/>
    <tripinfo id="525" depart="31.00" departLane="S23T23_0" departPos="5.10" departSpeed="0.00" departDelay="0.35" arrival="179.00" arrivalLane="U22V22_0" arrivalPos="485.60" arrivalSpeed="13.89" duration="148.00" routeLength="1974.93" waitingTime="0.00" waitingCount="0" stopTime="0.00" timeLoss="4.50" rerouteNo="0" devices="tripinfo_525" vType="DEFAULT_VEHTYPE" speedFactor="1.00" vaporized=""/>
    <tripinfo id="459" depart="27.00" departLane="Q13Q12_0" departPos="5.10" departSpeed="0.00" departDelay="0.21" arrival="185.00" arrivalLane="R13R14_0" arrivalPos="485.60" arrivalSpeed="13.89" duration="158.00" routeLength="1965.19" waitingTime="3.00" waitingCount="1" stopTime="0.00" timeLoss="13.49" rerouteNo="0" devices="tripinfo_459" vType="DEFAULT_VEHTYPE" speedFactor="1.00" vaporized=""/>
    <tripinfo id="594" depart="35.00" departLane="N4O4_0" departPos="5.10" departSpeed="0.00" departDelay="0.33" arrival="186.00" arrivalLane="N3N4_0" arrivalPos="485.60" arrivalSpeed="13.89" duration="151.00" routeLength="1964.39" waitingTime="0.00" waitingCount="0" stopTime="0.00" timeLoss="7.23" rerouteNo="0" devices="tripinfo_594" vType="DEFAULT_VEHTYPE" speedFactor="1.00" vaporized=""/>
    <tripinfo id="929" depart="55.00" departLane="U17V17_0" departPos="5.10" departSpeed="0.00" departDelay="0.77" arrival="188.00" arrivalLane="V16W16_0" arrivalPos="485.60" arrivalSpeed="5.20" duration="133.00" routeLength="1474.93" waitingTime="18.00" waitingCount="1" stopTime="0.00" timeLoss="25.42" rerouteNo="0" devices="tripinfo_929" vType="DEFAULT_VEHTYPE" speedFactor="1.00" vaporized=""/>
    <tripinfo id="717" depart="42.00" departLane="S18R18_0" departPos="5.10" departSpeed="0.00" departDelay="0.15" arrival="189.00" arrivalLane="R20R21_0" arrivalPos="485.60" arrivalSpeed="13.89" duration="147.00" routeLength="1975.13" waitingTime="0.00" waitingCount="0" stopTime="0.00" timeLoss="3.72" rerouteNo="0" devices="tripinfo_717" vType="DEFAULT_VEHTYPE" speedFactor="1.00" vaporized=""/>
    <tripinfo id="635" depart="38.00" departLane="K21L21_0" departPos="5.10" departSpeed="0.00" departDelay="0.93" arrival="191.00" arrivalLane="M20N20_0" arrivalPos="485.60" arrivalSpeed="13.89" duration="153.00" routeLength="1974.93" waitingTime="2.00" waitingCount="1" stopTime="0.00" timeLoss="9.19" rerouteNo="0" devices="tripinfo_635" vType="DEFAULT_VEHTYPE" speedFactor="1.00" vaporized=""/>
    <tripinfo id="716" depart="42.00" departLane="R1R0_0" departPos="5.10" departSpeed="0.00" departDelay="0.20" arrival="191.00" arrivalLane="P0P1_0" arrivalPos="485.60" arrivalSpeed="13.89" duration="149.00" routeLength="1969.76" waitingTime="0.00" waitingCount="0" stopTime="0.00" timeLoss="5.30" rerouteNo="0" devices="tripinfo_716" vType="DEFAULT_VEHTYPE" speedFactor="1.00" vaporized=""/>
    <tripinfo id="107" depart="7.00" departLane="W3X3_0" departPos="5.10" departSpeed="0.00" departDelay="0.75" arrival="193.00" arrivalLane="X6X5_0" arrivalPos="485.60" arrivalSpeed="13.89" duration="186.00" routeLength="2470.56" waitingTime="0.00" waitingCount="0" stopTime="0.00" timeLoss="6.41" rerouteNo="0" devices="tripinfo_107" vType="DEFAULT_VEHTYPE" speedFactor="1.00" vaporized=""/>
    <tripinfo id="2655" depart="155.00" departLane="X1X0_0" departPos="5.10" departSpeed="0.00" departDelay="0.01" arrival="193.00" arrivalLane="X1X0_0" arrivalPos="489.60" arrivalSpeed="13.89" duration="38.00" routeLength="484.50" waitingTime="0.00" waitingCount="0" stopTime="0.00" timeLoss="2.19" rerouteNo="0" devices="tripinfo_2655" vType="DEFAULT_VEHTYPE" speedFactor="1.00" vaporized=""/>
    <tripinfo id="813" depart="48.00" departLane="K21L21_0" departPos="5.10" departSpeed="0.00" departDelay="0.54" arrival="198.00" arrivalLane="L23K23_0" arrivalPos="485.60" arrivalSpeed="13.89" duration="150.00" routeLength="1980.08" waitingTime="0.00" waitingCount="0" stopTime="0.00" timeLoss="5.58" rerouteNo="0" devices="tripinfo_813" vType="DEFAULT_VEHTYPE" speedFactor="1.00" vaporized=""/>
    <tripinfo id="1456" depart="85.00" departLane="N1O1_0" departPos="5.10" departSpeed="0.00" departDelay="0.01" arrival="199.00" arrivalLane="N1N2_0" arrivalPos="485.60" arrivalSpeed="13.89" duration="114.00" routeLength="1465.40" waitingTime="0.00" waitingCount="0" stopTime="0.00" timeLoss="6.71" rerouteNo="0" devices="tripinfo_1456" vType="DEFAULT_VEHTYPE" speedFactor="1.00" vaporized=""/>
    <tripinfo id="57" depart="4.00" departLane="V2W2_0" departPos="5.10" departSpeed="0.00" departDelay="0.67" arrival="202.00" arrivalLane="U3T3_0" arrivalPos="485.60" arrivalSpeed="13.89" duration="198.00" routeLength="2465.20" waitingTime="5.00" waitingCount="1" stopTime="0.00" timeLoss="17.02" rerouteNo="0" devices="tripinfo_57" vType="DEFAULT_VEHTYPE" speedFactor="1.00" vaporized=""/>
    <tripinfo id="922" depart="54.00" departLane="W16W15_0" departPos="5.10" departSpeed="0.00" departDelay="0.18" arrival="203.00" arrivalLane="U15T15_0" arrivalPos="485.60" arrivalSpeed="13.89" duration="149.00" routeLength="1975.13" waitingTime="0.00" waitingCount="0" stopTime="0.00" timeLoss="5.80" rerouteNo="0" devices="tripinfo_922" vType="DEFAULT_VEHTYPE" speedFactor="1.00" vaporized=""/>
    <tripinfo id="339" depart="20.00" departLane="F12F11_0" departPos="5.10" departSpeed="0.00" departDelay="0.21" arrival="206.00" arrivalLane="F14E14_0" arrivalPos="485.60" arrivalSpeed="13.89" duration="186.00" routeLength="2470.57" waitingTime="0.00" waitingCount="0" stopTime="0.00" timeLoss="6.60" rerouteNo="0" devices="tripinfo_339" vType="DEFAULT_VEHTYPE" speedFactor="1.00" vaporized=""/>
    <tripinfo id="422" depart="25.00" departLane="U15U16_0" departPos="5.10" departSpeed="0.00" departDelay="0.37" arrival="206.00" arrivalLane="U19U20_0" arrivalPos="485.60" arrivalSpeed="13.89" duration="181.00" routeLength="2480.50" waitingTime="0.00" waitingCount="0" stopTime="0.00" timeLoss="2.19" rerouteNo="0" devices="tripinfo_422" vType="DEFAULT_VEHTYPE" speedFactor="1.00" vaporized=""/>
    <tripinfo id="613" depart="36.00" departLane="R9R10_0" departPos="5.10" departSpeed="0.00" departDelay="0.22" arrival="209.00" arrivalLane="S11S12_0" arrivalPos="485.60" arrivalSpeed="13.89" duration="173.00" routeLength="1974.92" waitingTime="22.00" waitingCount="1" stopTime="0.00" timeLoss="29.05" rerouteNo="0" devices="tripinfo_613" vType="DEFAULT_VEHTYPE" speedFactor="1.00" vaporized=""/>
    <tripinfo id="388" depart="23.00" departLane="X4W4_0" departPos="5.10" departSpeed="0.00" departDelay="0.35" arrival="211.00" arrivalLane="V2W2_0" arrivalPos="485.60" arrivalSpeed="10.34" duration="188.00" routeLength="2465.19" waitingTime="0.00" waitingCount="0" stopTime="0.00" timeLoss="8.25" rerouteNo="0" devices="tripinfo_388" vType="DEFAULT_VEHTYPE" speedFactor="1.00" vaporized=""/>
    <tripinfo id="1697" depart="100.00" departLane="E8D8_0" departPos="5.10" departSpeed="0.00" departDelay="0.94" arrival="213.00" arrivalLane="E8F8_0" arrivalPos="485.60" arrivalSpeed="13.89" duration="113.00" routeLength="1470.77" waitingTime="0.00" waitingCount="0" stopTime="0.00" timeLoss="5.88" rerouteNo="0" devices="tripinfo_1697" vType="DEFAULT_VEHTYPE" speedFactor="1.00" vaporized=""/>
    <tripinfo id="1111" depart="65.00" departLane="H1I1_0" departPos="5.10" departSpeed="0.00" departDelay="0.15" arrival="214.00" arrivalLane="I3H3_0" arrivalPos="485.60" arrivalSpeed="13.89" duration="149.00" routeLength="1980.09" waitingTime="0.00" waitingCount="0" stopTime="0.00" timeLoss="4.82" rerouteNo="0" devices="tripinfo_1111" vType="DEFAULT_VEHTYPE" speedFactor="1.00" vaporized=""/>
    <tripinfo id="496" depart="29.00" departLane="L4K4_0" departPos="5.10" departSpeed="0.00" departDelay="0.05" arrival="215.00" arrivalLane="J6J5_0" arrivalPos="485.60" arrivalSpeed="13.89" duration="186.00" routeLength="2465.40" waitingTime="0.00" waitingCount="0" stopTime="0.00" timeLoss="7.16" rerouteNo="0" devices="tripinfo_496" vType="DEFAULT_VEHTYPE" speedFactor="1.00" vaporized=""/>
    <tripinfo id="963" depart="57.00" departLane="T14S14_0" departPos="5.10" departSpeed="0.00" departDelay="0.78" arrival="216.00" arrivalLane="R15Q15_0" arrivalPos="485.60" arrivalSpeed="5.20" duration="159.00" routeLength="1974.93" waitingTime="5.00" waitingCount="2" stopTime="0.00" timeLoss="15.33" rerouteNo="0" devices="tripinfo_963" vType="DEFAULT_VEHTYPE" speedFactor="1.00" vaporized=""/>
    <tripinfo id="1167" depart="69.00" departLane="N7N6_0" departPos="5.10" departSpeed="0.00" departDelay="0.88" arrival="217.00" arrivalLane="N4N5_0" arrivalPos="485.60" arrivalSpeed="13.89" duration="148.00" routeLength="1970.77" waitingTime="0.00" waitingCount="0" stopTime="0.00" timeLoss="5.24" rerouteNo="0" devices="tripinfo_1167" vType="DEFAULT_VEHTYPE" speedFactor="1.00" vaporized=""/>
    <tripinfo id="1176" depart="69.00" departLane="L22L21_0" departPos="5.10" departSpeed="0.00" departDelay="0.35" arrival="217.00" arrivalLane="L19L20_0" arrivalPos="485.60" arrivalSpeed="13.89" duration="148.00" routeLength="1970.77" waitingTime="0.00" waitingCount="0" stopTime="0.00" timeLoss="5.24" rerouteNo="0" devices="tripinfo_1176" vType="DEFAULT_VEHTYPE" speedFactor="1.00" vaporized=""/>
    <tripinfo id="486" depart="29.00" departLane="T22T23_0" departPos="5.10" departSpeed="0.00" departDelay="0.63" arrival="220.00" arrivalLane="V22V23_0" arrivalPos="485.60" arrivalSpeed="13.89" duration="191.00" routeLength="2460.03" waitingTime="2.00" waitingCount="1" stopTime="0.00" timeLoss="11.32" rerouteNo="0" devices="tripinfo_486" vType="DEFAULT_VEHTYPE" speedFactor="1.00" vaporized=""/>
    <tripinfo id="673" depart="40.00" departLane="W20V20_0" departPos="5.10" departSpeed="0.00" departDelay="0.71" arrival="220.00" arrivalLane="X20W20_0" arrivalPos="485.60" arrivalSpeed="13.89" duration="180.00" routeLength="1961.04" waitingTime="27.00" waitingCount="1" stopTime="0.00" timeLoss="37.50" rerouteNo="0" devices="tripinfo_673" vType="DEFAULT_VEHTYPE" speedFactor="1.00" vaporized=""/>
    <tripinfo id="1171" depart="69.00" departLane="A4B4_0" departPos="5.10" departSpeed="0.00" departDelay="0.64" arrival="221.00" arrivalLane="C3B3_0" arrivalPos="485.60" arrivalSpeed="13.89" duration="152.00" routeLength="1969.76" waitingTime="0.00" waitingCount="0" stopTime="0.00" timeLoss="8.30" rerouteNo="0" devices="tripinfo_1171" vType="DEFAULT_VEHTYPE" speedFactor="1.00" vaporized=""/>
    <tripinfo id="630" depart="37.00" departLane="D5D4_0" departPos="5.10" departSpeed="0.00" departDelay="0.22" arrival="222.00" arrivalLane="B3A3_0" arrivalPos="485.60" arrivalSpeed="13.89" duration="185.00" routeLength="2475.13" waitingTime="0.00" waitingCount="0" stopTime="0.00" timeLoss="5.80" rerouteNo="0" devices="tripinfo_630" vType="DEFAULT_VEHTYPE" speedFactor="1.00" vaporized=""/>
    <tripinfo id="2404" depart="147.00" departLane="J9J8_0" departPos="5.10" departSpeed="0.00" departDelay="6.67" arrival="222.00" arrivalLane="J8I8_0" arrivalPos="485.60" arrivalSpeed="13.89" duration="75.00" routeLength="975.13" waitingTime="0.00" waitingCount="0" stopTime="0.00" timeLoss="3.44" rerouteNo="0" devices="tripinfo_2404" vType="DEFAULT_VEHTYPE" speedFactor="1.00" vaporized=""/>
    <tripinfo id="106" depart="7.00" departLane="K8K9_0" departPos="5.10" departSpeed="0.00" departDelay="0.81" arrival="226.00" arrivalLane="K13L13_0" arrivalPos="485.60" arrivalSpeed="13.89" duration="219.00" routeLength="2975.13" waitingTime="0.00" waitingCount="0" stopTime="0.00" timeLoss="3.45" rerouteNo="0" devices="tripinfo_106" vType="DEFAULT_VEHTYPE" speedFactor="1.00" vaporized=""/>
    <tripinfo id="1909" depart="112.00" departLane="U15U16_0" departPos="5.10" departSpeed="0.00" departDelay="0.56" arrival="226.00" arrivalLane="U15T15_0" arrivalPos="485.60" arrivalSpeed="13.89" duration="114.00" routeLength="1465.40" waitingTime="0.00" waitingCount="0" stopTime="0.00" timeLoss="6.47" rerouteNo="0" devices="tripinfo_1909" vType="DEFAULT_VEHTYPE" speedFactor="1.00" vaporized=""/>
    <tripinfo id="64" depart="4.00" departLane="U7U8_0" departPos="5.10" departSpeed="0.00" departDelay="0.26" arrival="227.00" arrivalLane="T5S5_0" arrivalPos="485.60" arrivalSpeed="13.89" duration="223.00" routeLength="2965.40" waitingTime="0.00" waitingCount="0" stopTime="0.00" timeLoss="7.98" rerouteNo="0" devices="tripinfo_64" vType="DEFAULT_VEHTYPE" speedFactor="1.00" vaporized=""/>
    <tripinfo id="31" depart="2.00" departLane="N17M17_0" departPos="5.10" departSpeed="0.00" departDelay="0.19" arrival="228.00" arrivalLane="Q17P17_0" arrivalPos="485.60" arrivalSpeed="13.89" duration="226.00" routeLength="2961.04" waitingTime="0.00" waitingCount="0" stopTime="0.00" timeLoss="10.42" rerouteNo="0" devices="tripinfo_31" vType="DEFAULT_VEHTYPE" speedFactor="1.00" vaporized=""/>
    <tripinfo id="482" depart="29.00" departLane="C5C4_0" departPos="5.10" departSpeed="0.00" departDelay="0.86" arrival="229.00" arrivalLane="F4E4_0" arrivalPos="485.60" arrivalSpeed="13.89" duration="200.00" routeLength="2470.57" waitingTime="8.00" waitingCount="2" stopTime="0.00" timeLoss="20.61" rerouteNo="0" devices="tripinfo_482" vType="DEFAULT_VEHTYPE" speedFactor="1.00" vaporized=""/>
    <tripinfo id="747" depart="44.00" departLane="X17X18_0" departPos="5.10" departSpeed="0.00" departDelay="0.39" arrival="229.00" arrivalLane="W20W19_0" arrivalPos="485.60" arrivalSpeed="13.89" duration="185.00" routeLength="2480.09" waitingTime="0.00" waitingCount="0" stopTime="0.00" timeLoss="4.79" rerouteNo="0" devices="tripinfo_747" vType="DEFAULT_VEHTYPE" speedFactor="1.00" vaporized=""/>
    <tripinfo id="1370" depart="81.00" departLane="L12M12_0" departPos="5.10" departSpeed="0.00" departDelay="1.03" arrival="229.00" arrivalLane="O12P12_0" arrivalPos="485.60" arrivalSpeed="13.89" duration="148.00" routeLength="1980.50" waitingTime="0.00" waitingCount="0" stopTime="0.00" timeLoss="5.00" rerouteNo="0" devices="tripinfo_1370" vType="DEFAULT_VEHTYPE" speedFactor="1.00" vaporized=""/>
    <tripinfo id="2609" depart="155.00" departLane="T18S18_0" departPos="5.10" departSpeed="0.00" departDelay="2.70" arrival="229.00" arrivalLane="S18R18_0" arrivalPos="485.60" arrivalSpeed="13.89" duration="74.00" routeLength="980.50" waitingTime="0.00" waitingCount="0" stopTime="0.00" timeLoss="2.96" rerouteNo="0" devices="tripinfo_2609" vType="DEFAULT_VEHTYPE" speedFactor="1.00" vaporized=""/>
    <tripinfo id="1418" depart="83.00" departLane="A2B2_0" departPos="5.10" departSpeed="0.00" departDelay="0.22" arrival="230.00" arrivalLane="B4B5_0" arrivalPos="485.60" arrivalSpeed="13.89" duration="147.00" routeLength="1980.29" waitingTime="0.00" waitingCount="0" stopTime="0.00" timeLoss="3.39" rerouteNo="0" devices="tripinfo_1418" vType="DEFAULT_VEHTYPE" speedFactor="1.00" vaporized=""/>
    <tripinfo id="1401" depart="82.00" departLane="D10E10_0" departPos="5.10" departSpeed="0.00" departDelay="0.22" arrival="232.00" arrivalLane="D9C9_0" arrivalPos="485.60" arrivalSpeed="13.89" duration="150.00" routeLength="1969.76" waitingTime="0.00" waitingCount="0" stopTime="0.00" timeLoss="6.91" rerouteNo="0" devices="tripinfo_1401" vType="DEFAULT_VEHTYPE" speedFactor="1.00" vaporized=""/>
    <tripinfo id="132" depart="8.00" departLane="T6S6_0" departPos="5.10" departSpeed="0.00" departDelay="0.29" arrival="233.00" arrivalLane="Q4R4_0" arrivalPos="485.60" arrivalSpeed="13.89" duration="225.00" routeLength="2965.19" waitingTime="0.00" waitingCount="0" stopTime="0.00" timeLoss="9.31" rerouteNo="0" devices="tripinfo_132" vType="DEFAULT_VEHTYPE" speedFactor="1.00" vaporized=""/>
    <tripinfo id="186" depart="11.00" departLane="R2R3_0" departPos="5.10" departSpeed="0.00" departDelay="0.14" arrival="233.00" arrivalLane="Q0P0_0" arrivalPos="485.60" arrivalSpeed="13.89" duration="222.00" routeLength="2965.40" waitingTime="0.00" waitingCount="0" stopTime="0.00" timeLoss="6.71" rerouteNo="0" devices="tripinfo_186" vType="DEFAULT_VEHTYPE" speedFactor="1.00" vaporized=""/>
    <tripinfo id="1400" depart="82.00" departLane="H1I1_0" departPos="5.10" departSpeed="0.00" departDelay="0.28" arrival="233.00" arrivalLane="G1G2_0" arrivalPos="485.60" arrivalSpeed="13.89" duration="151.00" routeLength="1965.40" waitingTime="0.00" waitingCount="0" stopTime="0.00" timeLoss="7.59" rerouteNo="0" devices="tripinfo_1400" vType="DEFAULT_VEHTYPE" speedFactor="1.00" vaporized=""/>
    <tripinfo id="758" depart="45.00" departLane="N3O3_0" departPos="5.10" departSpeed="0.00" departDelay="0.75" arrival="234.00" arrivalLane="M2N2_0" arrivalPos="485.60" arrivalSpeed="13.89" duration="189.00" routeLength="2460.03" waitingTime="0.00" waitingCount="0" stopTime="0.00" timeLoss="9.95" rerouteNo="0" devices="tripinfo_758" vType="DEFAULT_VEHTYPE" speedFactor="1.00" vaporized=""/>
    <tripinfo id="872" depart="51.00" departLane="V7U7_0" departPos="5.10" departSpeed="0.00" departDelay="0.10" arrival="234.00" arrivalLane="U4U3_0" arrivalPos="485.60" arrivalSpeed="13.89" duration="183.00" routeLength="2480.29" waitingTime="0.00" waitingCount="0" stopTime="0.00" timeLoss="3.39" rerouteNo="0" devices="tripinfo_872" vType="DEFAULT_VEHTYPE" speedFactor="1.00" vaporized=""/>
    <tripinfo id="518" depart="31.00" departLane="F6F5_0" departPos="5.10" departSpeed="0.00" departDelay="0.76" arrival="235.00" arrivalLane="H6H7_0" arrivalPos="485.60" arrivalSpeed="13.89" duration="204.00" routeLength="2465.19" waitingTime="13.00" waitingCount="1" stopTime="0.00" timeLoss="24.02" rerouteNo="0" devices="tripinfo_518" vType="DEFAULT_VEHTYPE" speedFactor="1.00" vaporized=""/>
    <tripinfo id="1426" depart="86.00" departLane="E16E17_0" departPos="5.10" departSpeed="0.00" departDelay="2.76" arrival="235.00" arrivalLane="F16F15_0" arrivalPos="485.60" arrivalSpeed="13.89" duration="149.00" routeLength="1969.76" waitingTime="0.00" waitingCount="0" stopTime="0.00" timeLoss="5.37" rerouteNo="0" devices="tripinfo_1426" vType="DEFAULT_VEHTYPE" speedFactor="1.00" vaporized=""/>
    <tripinfo id="808" depart="48.00" departLane="L8M8_0" departPos="5.10" departSpeed="0.00" departDelay="0.83" arrival="236.00" arrivalLane="O9O8_0" arrivalPos="485.60" arrivalSpeed="13.89" duration="188.00" routeLength="2469.55" waitingTime="0.00" waitingCount="0" stopTime="0.00" timeLoss="7.54" rerouteNo="0" devices="tripinfo_808" vType="DEFAULT_VEHTYPE" speedFactor="1.00" vaporized=""/>
    <tripinfo id="1451" depart="85.00" departLane="T9T10_0" departPos="5.10" departSpeed="0.00" departDelay="0.30" arrival="237.00" arrivalLane="U11V11_0" arrivalPos="485.60" arrivalSpeed="13.89" duration="152.00" routeLength="1975.13" waitingTime="1.00" waitingCount="1" stopTime="0.00" timeLoss="8.83" rerouteNo="0" devices="tripinfo_1451" vType="DEFAULT_VEHTYPE" speedFactor="1.00" vaporized=""/>
    <tripinfo id="261" depart="16.00" departLane="P20P21_0" departPos="5.10" departSpeed="0.00" departDelay="0.76" arrival="239.00" arrivalLane="S22S21_0" arrivalPos="485.60" arrivalSpeed="13.89" duration="223.00" routeLength="2969.76" waitingTime="0.00" waitingCount="0" stopTime="0.00" timeLoss="7.50" rerouteNo="0" devices="tripinfo_261" vType="DEFAULT_VEHTYPE" speedFactor="1.00" vaporized=""/>