<?xml version="1.0" encoding="UTF-8"?>

<!-- generated on 2026-07-18 17:26:42 by Eclipse SUMO sumo Version 1.20.0
<configuration xmlns:xsi="http://www.w3.org/2001/XMLSchema-instance" xsi:noNamespaceSchemaLocation="http://sumo.dlr.de/xsd/sumoConfiguration.xsd">

    <input>
        <net-file value="/home/user/SumoSharp/scenarios/71-parkandstay-crossedge/net.net.xml"/>
        <route-files value="/home/user/SumoSharp/scenarios/71-parkandstay-crossedge/rou.rou.xml"/>
        <additional-files value="/home/user/SumoSharp/scenarios/71-parkandstay-crossedge/extra.add.xml"/>
    </input>

    <output>
        <precision value="6"/>
        <fcd-output value="/home/user/SumoSharp/scenarios/71-parkandstay-crossedge/golden.fcd.xml"/>
        <fcd-output.acceleration value="true"/>
        <tripinfo-output value="/home/user/SumoSharp/scenarios/71-parkandstay-crossedge/golden.tripinfo.xml"/>
        <save-state.times value="1"/>
        <save-state.files value="/home/user/SumoSharp/scenarios/71-parkandstay-crossedge/golden.state.xml"/>
    </output>

    <time>
        <begin value="0"/>
        <end value="20"/>
        <step-length value="1"/>
    </time>

    <processing>
        <step-method.ballistic value="false"/>
        <collision.action value="none"/>
        <time-to-teleport value="-1"/>
        <default.action-step-length value="1"/>
        <default.speeddev value="0"/>
    </processing>

    <report>
        <no-step-log value="true"/>
    </report>

    <random_number>
        <seed value="42"/>
    </random_number>

</configuration>
-->

<fcd-export xmlns:xsi="http://www.w3.org/2001/XMLSchema-instance" xsi:noNamespaceSchemaLocation="http://sumo.dlr.de/xsd/fcd_file.xsd">
    <timestep time="0.000">
        <vehicle id="sink0" x="0.000000" y="-1.600000" angle="90.000000" type="car" speed="10.000000" pos="0.000000" lane="e0_1" slope="0.000000" acceleration="0.000000"/>
    </timestep>
    <timestep time="1.000">
        <vehicle id="sink0" x="10.000000" y="-4.800000" angle="90.000000" type="car" speed="10.000000" pos="10.000000" lane="e0_0" slope="0.000000" acceleration="0.000000"/>
    </timestep>
    <timestep time="2.000">
        <vehicle id="sink0" x="20.000000" y="-4.800000" angle="90.000000" type="car" speed="10.000000" pos="20.000000" lane="e0_0" slope="0.000000" acceleration="0.000000"/>
    </timestep>
    <timestep time="3.000">
        <vehicle id="sink0" x="30.000000" y="-4.800000" angle="90.000000" type="car" speed="10.000000" pos="30.000000" lane="e0_0" slope="0.000000" acceleration="0.000000"/>
    </timestep>
    <timestep time="4.000">
        <vehicle id="sink0" x="40.000000" y="-4.800000" angle="90.000000" type="car" speed="10.000000" pos="40.000000" lane="e0_0" slope="0.000000" acceleration="0.000000"/>
    </timestep>
    <timestep time="5.000">
        <vehicle id="sink0" x="50.000000" y="-4.800000" angle="90.000000" type="car" speed="10.000000" pos="50.000000" lane="e0_0" slope="0.000000" acceleration="0.000000"/>
    </timestep>
    <timestep time="6.000">
        <vehicle id="sink0" x="59.900000" y="-4.800000" angle="90.000000" type="car" speed="10.000000" pos="2.900000" lane="e1_0" slope="0.000000" acceleration="0.000000"/>
    </timestep>
    <timestep time="7.000">
        <vehicle id="sink0" x="68.699500" y="-4.800000" angle="90.000000" type="car" speed="8.799500" pos="11.699500" lane="e1_0" slope="0.000000" acceleration="-1.200500"/>
    </timestep>
    <timestep time="8.000">
        <vehicle id="sink0" x="72.999000" y="-4.800000" angle="90.000000" type="car" speed="4.299500" pos="15.999000" lane="e1_0" slope="0.000000" acceleration="-4.500000"/>
    </timestep>
    <timestep time="9.000">
        <vehicle id="sink0" x="73.000000" y="-8.000000" angle="90.000000" type="car" speed="0.000000" pos="15.999000" lane="e1_0" slope="0.000000" acceleration="-4.299500"/>
    </timestep>
    <timestep time="10.000">
        <vehicle id="sink0" x="73.000000" y="-8.000000" angle="90.000000" type="car" speed="0.000000" pos="15.999000" lane="e1_0" slope="0.000000" acceleration="0.000000"/>
    </timestep>
    <timestep time="11.000">
        <vehicle id="sink0" x="73.000000" y="-8.000000" angle="90.000000" type="car" speed="0.000000" pos="15.999000" lane="e1_0" slope="0.000000" acceleration="0.000000"/>
    </timestep>
    <timestep time="12.000">
        <vehicle id="sink0" x="73.000000" y="-8.000000" angle="90.000000" type="car" speed="0.000000" pos="15.999000" lane="e1_0" slope="0.000000" acceleration="0.000000"/>
    </timestep>
    <timestep time="13.000">
        <vehicle id="sink0" x="73.000000" y="-8.000000" angle="90.000000" type="car" speed="0.000000" pos="15.999000" lane="e1_0" slope="0.000000" acceleration="0.000000"/>
    </timestep>
    <timestep time="14.000">
        <vehicle id="sink0" x="73.000000" y="-8.000000" angle="90.000000" type="car" speed="0.000000" pos="15.999000" lane="e1_0" slope="0.000000" acceleration="0.000000"/>
    </timestep>
    <timestep time="15.000">
        <vehicle id="sink0" x="73.000000" y="-8.000000" angle="90.000000" type="car" speed="0.000000" pos="15.999000" lane="e1_0" slope="0.000000" acceleration="0.000000"/>
    </timestep>
    <timestep time="16.000">
        <vehicle id="sink0" x="73.000000" y="-8.000000" angle="90.000000" type="car" speed="0.000000" pos="15.999000" lane="e1_0" slope="0.000000" acceleration="0.000000"/>
    </timestep>
    <timestep time="17.000">
        <vehicle id="sink0" x="73.000000" y="-8.000000" angle="90.000000" type="car" speed="0.000000" pos="15.999000" lane="e1_0" slope="0.000000" acceleration="0.000000"/>
    </timestep>
    <timestep time="18.000">
        <vehicle id="sink0" x="73.000000" y="-8.000000" angle="90.000000" type="car" speed="0.000000" pos="15.999000" lane="e1_0" slope="0.000000" acceleration="0.000000"/>
    </timestep>
    <timestep time="19.000">
        <vehicle id="sink0" x="73.000000" y="-8.000000" angle="90.000000" type="car" speed="0.000000" pos="15.999000" lane="e1_0" slope="0.000000" acceleration="0.000000"/>
    </timestep>
</fcd-export>
