<?xml version="1.0" encoding="UTF-8"?>

<!-- generated on 2026-07-08 23:09:07 by Eclipse SUMO sumo Version 1.20.0
<configuration xmlns:xsi="http://www.w3.org/2001/XMLSchema-instance" xsi:noNamespaceSchemaLocation="http://sumo.dlr.de/xsd/sumoConfiguration.xsd">

    <input>
        <net-file value="net.net.xml"/>
        <route-files value="rou.rou.xml"/>
    </input>

    <output>
        <precision value="6"/>
        <fcd-output value="golden.fcd.xml"/>
        <fcd-output.acceleration value="true"/>
        <save-state.times value="1"/>
        <save-state.files value="golden.state.xml"/>
    </output>

    <time>
        <begin value="0"/>
        <end value="60"/>
        <step-length value="1"/>
    </time>

    <processing>
        <step-method.ballistic value="false"/>
        <collision.action value="none"/>
        <time-to-teleport value="-1"/>
        <default.action-step-length value="1"/>
        <default.speeddev value="0"/>
    </processing>

    <report>
        <no-step-log value="true"/>
    </report>

    <random_number>
        <seed value="42"/>
    </random_number>

</configuration>
-->

<fcd-export xmlns:xsi="http://www.w3.org/2001/XMLSchema-instance" xsi:noNamespaceSchemaLocation="http://sumo.dlr.de/xsd/fcd_file.xsd">
    <timestep time="0.000">
        <vehicle id="ego" x="501.600000" y="0.000000" angle="0.000000" type="car" speed="0.000000" pos="0.000000" lane="SJ_0" slope="0.000000" acceleration="0.000000"/>
        <vehicle id="foeFar" x="0.000000" y="98.400000" angle="90.000000" type="car" speed="0.000000" pos="0.000000" lane="WJ_0" slope="0.000000" acceleration="0.000000"/>
    </timestep>
    <timestep time="1.000">
        <vehicle id="ego" x="501.600000" y="2.600000" angle="0.000000" type="car" speed="2.600000" pos="2.600000" lane="SJ_0" slope="0.000000" acceleration="2.600000"/>
        <vehicle id="foeFar" x="2.600000" y="98.400000" angle="90.000000" type="car" speed="2.600000" pos="2.600000" lane="WJ_0" slope="0.000000" acceleration="2.600000"/>
    </timestep>
    <timestep time="2.000">
        <vehicle id="ego" x="501.600000" y="7.800000" angle="0.000000" type="car" speed="5.200000" pos="7.800000" lane="SJ_0" slope="0.000000" acceleration="2.600000"/>
        <vehicle id="foeFar" x="7.800000" y="98.400000" angle="90.000000" type="car" speed="5.200000" pos="7.800000" lane="WJ_0" slope="0.000000" acceleration="2.600000"/>
    </timestep>
    <timestep time="3.000">
        <vehicle id="ego" x="501.600000" y="15.600000" angle="0.000000" type="car" speed="7.800000" pos="15.600000" lane="SJ_0" slope="0.000000" acceleration="2.600000"/>
        <vehicle id="foeFar" x="15.600000" y="98.400000" angle="90.000000" type="car" speed="7.800000" pos="15.600000" lane="WJ_0" slope="0.000000" acceleration="2.600000"/>
    </timestep>
    <timestep time="4.000">
        <vehicle id="ego" x="501.600000" y="26.000000" angle="0.000000" type="car" speed="10.400000" pos="26.000000" lane="SJ_0" slope="0.000000" acceleration="2.600000"/>
        <vehicle id="foeFar" x="26.000000" y="98.400000" angle="90.000000" type="car" speed="10.400000" pos="26.000000" lane="WJ_0" slope="0.000000" acceleration="2.600000"/>
    </timestep>
    <timestep time="5.000">
        <vehicle id="ego" x="501.600000" y="39.000000" angle="0.000000" type="car" speed="13.000000" pos="39.000000" lane="SJ_0" slope="0.000000" acceleration="2.600000"/>
        <vehicle id="foeFar" x="39.000000" y="98.400000" angle="90.000000" type="car" speed="13.000000" pos="39.000000" lane="WJ_0" slope="0.000000" acceleration="2.600000"/>
    </timestep>
    <timestep time="6.000">
        <vehicle id="ego" x="501.600000" y="52.890000" angle="0.000000" type="car" speed="13.890000" pos="52.890000" lane="SJ_0" slope="0.000000" acceleration="0.890000"/>
        <vehicle id="foeFar" x="52.890000" y="98.400000" angle="90.000000" type="car" speed="13.890000" pos="52.890000" lane="WJ_0" slope="0.000000" acceleration="0.890000"/>
    </timestep>
    <timestep time="7.000">
        <vehicle id="ego" x="501.600000" y="66.780000" angle="0.000000" type="car" speed="13.890000" pos="66.780000" lane="SJ_0" slope="0.000000" acceleration="0.000000"/>
        <vehicle id="foeFar" x="66.780000" y="98.400000" angle="90.000000" type="car" speed="13.890000" pos="66.780000" lane="WJ_0" slope="0.000000" acceleration="0.000000"/>
    </timestep>
    <timestep time="8.000">
        <vehicle id="ego" x="501.600000" y="79.919667" angle="0.000000" type="car" speed="13.139667" pos="79.919667" lane="SJ_0" slope="0.000000" acceleration="-0.750333"/>
        <vehicle id="foeFar" x="80.670000" y="98.400000" angle="90.000000" type="car" speed="13.890000" pos="80.670000" lane="WJ_0" slope="0.000000" acceleration="0.000000"/>
    </timestep>
    <timestep time="9.000">
        <vehicle id="ego" x="501.600000" y="88.559333" angle="0.000000" type="car" speed="8.639667" pos="88.559333" lane="SJ_0" slope="0.000000" acceleration="-4.500000"/>
        <vehicle id="foeFar" x="94.560000" y="98.400000" angle="90.000000" type="car" speed="13.890000" pos="94.560000" lane="WJ_0" slope="0.000000" acceleration="0.000000"/>
    </timestep>
    <timestep time="10.000">
        <vehicle id="ego" x="501.600000" y="99.799000" angle="0.000000" type="car" speed="11.239667" pos="6.999000" lane=":J_0_0" slope="0.000000" acceleration="2.600000"/>
        <vehicle id="foeFar" x="108.450000" y="98.400000" angle="90.000000" type="car" speed="13.890000" pos="108.450000" lane="WJ_0" slope="0.000000" acceleration="0.000000"/>
    </timestep>
    <timestep time="11.000">
        <vehicle id="ego" x="501.600000" y="113.638667" angle="0.000000" type="car" speed="13.839667" pos="9.638667" lane="JN_0" slope="0.000000" acceleration="2.600000"/>
        <vehicle id="foeFar" x="122.340000" y="98.400000" angle="90.000000" type="car" speed="13.890000" pos="122.340000" lane="WJ_0" slope="0.000000" acceleration="0.000000"/>
    </timestep>
    <timestep time="12.000">
        <vehicle id="ego" x="501.600000" y="127.528667" angle="0.000000" type="car" speed="13.890000" pos="23.528667" lane="JN_0" slope="0.000000" acceleration="0.050333"/>
        <vehicle id="foeFar" x="136.230000" y="98.400000" angle="90.000000" type="car" speed="13.890000" pos="136.230000" lane="WJ_0" slope="0.000000" acceleration="0.000000"/>
    </timestep>
    <timestep time="13.000">
        <vehicle id="ego" x="501.600000" y="141.418667" angle="0.000000" type="car" speed="13.890000" pos="37.418667" lane="JN_0" slope="0.000000" acceleration="0.000000"/>
        <vehicle id="foeFar" x="150.120000" y="98.400000" angle="90.000000" type="car" speed="13.890000" pos="150.120000" lane="WJ_0" slope="0.000000" acceleration="0.000000"/>
    </timestep>
    <timestep time="14.000">
        <vehicle id="ego" x="501.600000" y="155.308667" angle="0.000000" type="car" speed="13.890000" pos="51.308667" lane="JN_0" slope="0.000000" acceleration="0.000000"/>
        <vehicle id="foeFar" x="164.010000" y="98.400000" angle="90.000000" type="car" speed="13.890000" pos="164.010000" lane="WJ_0" slope="0.000000" acceleration="0.000000"/>
    </timestep>
    <timestep time="15.000">
        <vehicle id="ego" x="501.600000" y="169.198667" angle="0.000000" type="car" speed="13.890000" pos="65.198667" lane="JN_0" slope="0.000000" acceleration="0.000000"/>
        <vehicle id="foeFar" x="177.900000" y="98.400000" angle="90.000000" type="car" speed="13.890000" pos="177.900000" lane="WJ_0" slope="0.000000" acceleration="0.000000"/>
    </timestep>
    <timestep time="16.000">
        <vehicle id="ego" x="501.600000" y="183.088667" angle="0.000000" type="car" speed="13.890000" pos="79.088667" lane="JN_0" slope="0.000000" acceleration="0.000000"/>
        <vehicle id="foeFar" x="191.790000" y="98.400000" angle="90.000000" type="car" speed="13.890000" pos="191.790000" lane="WJ_0" slope="0.000000" acceleration="0.000000"/>
    </timestep>
    <timestep time="17.000">
        <vehicle id="ego" x="501.600000" y="196.978667" angle="0.000000" type="car" speed="13.890000" pos="92.978667" lane="JN_0" slope="0.000000" acceleration="0.000000"/>
        <vehicle id="foeFar" x="205.680000" y="98.400000" angle="90.000000" type="car" speed="13.890000" pos="205.680000" lane="WJ_0" slope="0.000000" acceleration="0.000000"/>
    </timestep>
    <timestep time="18.000">
        <vehicle id="foeFar" x="219.570000" y="98.400000" angle="90.000000" type="car" speed="13.890000" pos="219.570000" lane="WJ_0" slope="0.000000" acceleration="0.000000"/>
    </timestep>
    <timestep time="19.000">
        <vehicle id="foeFar" x="233.460000" y="98.400000" angle="90.000000" type="car" speed="13.890000" pos="233.460000" lane="WJ_0" slope="0.000000" acceleration="0.000000"/>
    </timestep>
    <timestep time="20.000">
        <vehicle id="foeFar" x="247.350000" y="98.400000" angle="90.000000" type="car" speed="13.890000" pos="247.350000" lane="WJ_0" slope="0.000000" acceleration="0.000000"/>
    </timestep>
    <timestep time="21.000">
        <vehicle id="foeFar" x="261.240000" y="98.400000" angle="90.000000" type="car" speed="13.890000" pos="261.240000" lane="WJ_0" slope="0.000000" acceleration="0.000000"/>
    </timestep>
    <timestep time="22.000">
        <vehicle id="foeFar" x="275.130000" y="98.400000" angle="90.000000" type="car" speed="13.890000" pos="275.130000" lane="WJ_0" slope="0.000000" acceleration="0.000000"/>
    </timestep>
    <timestep time="23.000">
        <vehicle id="foeFar" x="289.020000" y="98.400000" angle="90.000000" type="car" speed="13.890000" pos="289.020000" lane="WJ_0" slope="0.000000" acceleration="0.000000"/>
    </timestep>
    <timestep time="24.000">
        <vehicle id="foeFar" x="302.910000" y="98.400000" angle="90.000000" type="car" speed="13.890000" pos="302.910000" lane="WJ_0" slope="0.000000" acceleration="0.000000"/>
    </timestep>
    <timestep time="25.000">
        <vehicle id="foeFar" x="316.800000" y="98.400000" angle="90.000000" type="car" speed="13.890000" pos="316.800000" lane="WJ_0" slope="0.000000" acceleration="0.000000"/>
    </timestep>
    <timestep time="26.000">
        <vehicle id="foeFar" x="330.690000" y="98.400000" angle="90.000000" type="car" speed="13.890000" pos="330.690000" lane="WJ_0" slope="0.000000" acceleration="0.000000"/>
    </timestep>
    <timestep time="27.000">
        <vehicle id="foeFar" x="344.580000" y="98.400000" angle="90.000000" type="car" speed="13.890000" pos="344.580000" lane="WJ_0" slope="0.000000" acceleration="0.000000"/>
    </timestep>
    <timestep time="28.000">
        <vehicle id="foeFar" x="358.470000" y="98.400000" angle="90.000000" type="car" speed="13.890000" pos="358.470000" lane="WJ_0" slope="0.000000" acceleration="0.000000"/>
    </timestep>
    <timestep time="29.000">
        <vehicle id="foeFar" x="372.360000" y="98.400000" angle="90.000000" type="car" speed="13.890000" pos="372.360000" lane="WJ_0" slope="0.000000" acceleration="0.000000"/>
    </timestep>
    <timestep time="30.000">
        <vehicle id="foeFar" x="386.250000" y="98.400000" angle="90.000000" type="car" speed="13.890000" pos="386.250000" lane="WJ_0" slope="0.000000" acceleration="0.000000"/>
    </timestep>
    <timestep time="31.000">
        <vehicle id="foeFar" x="400.140000" y="98.400000" angle="90.000000" type="car" speed="13.890000" pos="400.140000" lane="WJ_0" slope="0.000000" acceleration="0.000000"/>
    </timestep>
    <timestep time="32.000">
        <vehicle id="foeFar" x="414.030000" y="98.400000" angle="90.000000" type="car" speed="13.890000" pos="414.030000" lane="WJ_0" slope="0.000000" acceleration="0.000000"/>
    </timestep>
    <timestep time="33.000">
        <vehicle id="foeFar" x="427.920000" y="98.400000" angle="90.000000" type="car" speed="13.890000" pos="427.920000" lane="WJ_0" slope="0.000000" acceleration="0.000000"/>
    </timestep>
    <timestep time="34.000">
        <vehicle id="foeFar" x="441.810000" y="98.400000" angle="90.000000" type="car" speed="13.890000" pos="441.810000" lane="WJ_0" slope="0.000000" acceleration="0.000000"/>
    </timestep>
    <timestep time="35.000">
        <vehicle id="foeFar" x="455.700000" y="98.400000" angle="90.000000" type="car" speed="13.890000" pos="455.700000" lane="WJ_0" slope="0.000000" acceleration="0.000000"/>
    </timestep>
    <timestep time="36.000">
        <vehicle id="foeFar" x="469.590000" y="98.400000" angle="90.000000" type="car" speed="13.890000" pos="469.590000" lane="WJ_0" slope="0.000000" acceleration="0.000000"/>
    </timestep>
    <timestep time="37.000">
        <vehicle id="foeFar" x="483.480000" y="98.400000" angle="90.000000" type="car" speed="13.890000" pos="483.480000" lane="WJ_0" slope="0.000000" acceleration="0.000000"/>
    </timestep>
    <timestep time="38.000">
        <vehicle id="foeFar" x="497.370000" y="98.400000" angle="90.000000" type="car" speed="13.890000" pos="1.370000" lane=":J_1_0" slope="0.000000" acceleration="0.000000"/>
    </timestep>
    <timestep time="39.000">
        <vehicle id="foeFar" x="511.260000" y="98.400000" angle="90.000000" type="car" speed="13.890000" pos="4.060000" lane="JE_0" slope="0.000000" acceleration="0.000000"/>
    </timestep>
    <timestep time="40.000">
        <vehicle id="foeFar" x="525.150000" y="98.400000" angle="90.000000" type="car" speed="13.890000" pos="17.950000" lane="JE_0" slope="0.000000" acceleration="0.000000"/>
    </timestep>
    <timestep time="41.000">
        <vehicle id="foeFar" x="539.040000" y="98.400000" angle="90.000000" type="car" speed="13.890000" pos="31.840000" lane="JE_0" slope="0.000000" acceleration="0.000000"/>
    </timestep>
    <timestep time="42.000">
        <vehicle id="foeFar" x="552.930000" y="98.400000" angle="90.000000" type="car" speed="13.890000" pos="45.730000" lane="JE_0" slope="0.000000" acceleration="0.000000"/>
    </timestep>
    <timestep time="43.000">
        <vehicle id="foeFar" x="566.820000" y="98.400000" angle="90.000000" type="car" speed="13.890000" pos="59.620000" lane="JE_0" slope="0.000000" acceleration="0.000000"/>
    </timestep>
    <timestep time="44.000">
        <vehicle id="foeFar" x="580.710000" y="98.400000" angle="90.000000" type="car" speed="13.890000" pos="73.510000" lane="JE_0" slope="0.000000" acceleration="0.000000"/>
    </timestep>
    <timestep time="45.000">
        <vehicle id="foeFar" x="594.600000" y="98.400000" angle="90.000000" type="car" speed="13.890000" pos="87.400000" lane="JE_0" slope="0.000000" acceleration="0.000000"/>
    </timestep>
    <timestep time="46.000"/>
    <timestep time="47.000"/>
    <timestep time="48.000"/>
    <timestep time="49.000"/>
    <timestep time="50.000"/>
    <timestep time="51.000"/>
    <timestep time="52.000"/>
    <timestep time="53.000"/>
    <timestep time="54.000"/>
    <timestep time="55.000"/>
    <timestep time="56.000"/>
    <timestep time="57.000"/>
    <timestep time="58.000"/>
    <timestep time="59.000"/>
</fcd-export>
