<?xml version="1.0" encoding="UTF-8"?>

<!-- generated on 2026-07-18 11:54:51 by Eclipse SUMO sumo Version 1.20.0
<configuration xmlns:xsi="http://www.w3.org/2001/XMLSchema-instance" xsi:noNamespaceSchemaLocation="http://sumo.dlr.de/xsd/sumoConfiguration.xsd">

    <input>
        <net-file value="/home/user/SumoSharp/scenarios/66-tripinfo-arrivallane/net.net.xml"/>
        <route-files value="/home/user/SumoSharp/scenarios/66-tripinfo-arrivallane/rou.rou.xml"/>
    </input>

    <output>
        <precision value="6"/>
        <fcd-output value="/home/user/SumoSharp/scenarios/66-tripinfo-arrivallane/golden.fcd.xml"/>
        <fcd-output.acceleration value="true"/>
        <tripinfo-output value="/home/user/SumoSharp/scenarios/66-tripinfo-arrivallane/golden.tripinfo.xml"/>
        <save-state.times value="1"/>
        <save-state.files value="/home/user/SumoSharp/scenarios/66-tripinfo-arrivallane/golden.state.xml"/>
    </output>

    <time>
        <begin value="0"/>
        <end value="60"/>
        <step-length value="1"/>
    </time>

    <processing>
        <step-method.ballistic value="false"/>
        <collision.action value="none"/>
        <time-to-teleport value="-1"/>
        <default.action-step-length value="1"/>
        <default.speeddev value="0"/>
    </processing>

    <report>
        <no-step-log value="true"/>
    </report>

    <random_number>
        <seed value="42"/>
    </random_number>

</configuration>
-->

<tripinfos xmlns:xsi="http://www.w3.org/2001/XMLSchema-instance" xsi:noNamespaceSchemaLocation="http://sumo.dlr.de/xsd/tripinfo_file.xsd">
    <tripinfo id="leader" depart="0.000" departLane="e0_0" departPos="100.000000" departSpeed="0.000000" departDelay="0.000" arrival="36.000" arrivalLane="e0_0" arrivalPos="400.000000" arrivalSpeed="13.890000" duration="36.000" routeLength="300.000000" waitingTime="0.000" waitingCount="0" stopTime="8.000" timeLoss="5.993" rerouteNo="0" devices="tripinfo_leader fcd_leader" vType="passenger0" speedFactor="1.000000" vaporized=""/>
    <tripinfo id="follower" depart="0.000" departLane="e0_0" departPos="0.000000" departSpeed="0.000000" departDelay="0.000" arrival="38.000" arrivalLane="e0_0" arrivalPos="400.000000" arrivalSpeed="13.890000" duration="38.000" routeLength="400.000000" waitingTime="2.000" waitingCount="1" stopTime="0.000" timeLoss="8.333" rerouteNo="0" devices="tripinfo_follower fcd_follower" vType="passenger0" speedFactor="1.000000" vaporized=""/>
</tripinfos>
