<?xml version="1.0" encoding="UTF-8"?>

<!-- generated on 2026-07-10 01:55:17 by Eclipse SUMO sumo Version 1.20.0
<configuration xmlns:xsi="http://www.w3.org/2001/XMLSchema-instance" xsi:noNamespaceSchemaLocation="http://sumo.dlr.de/xsd/sumoConfiguration.xsd">

    <input>
        <net-file value="net.net.xml"/>
        <route-files value="rou.rou.xml"/>
    </input>

    <output>
        <precision value="6"/>
        <fcd-output value="golden.fcd.xml"/>
        <fcd-output.acceleration value="true"/>
        <save-state.times value="1"/>
        <save-state.files value="golden.state.xml"/>
    </output>

    <time>
        <begin value="0"/>
        <end value="120"/>
        <step-length value="1"/>
    </time>

    <processing>
        <step-method.ballistic value="false"/>
        <time-to-teleport value="-1"/>
        <default.action-step-length value="1"/>
        <default.speeddev value="0"/>
    </processing>

    <report>
        <no-step-log value="true"/>
    </report>

    <random_number>
        <seed value="42"/>
    </random_number>

</configuration>
-->

<fcd-export xmlns:xsi="http://www.w3.org/2001/XMLSchema-instance" xsi:noNamespaceSchemaLocation="http://sumo.dlr.de/xsd/fcd_file.xsd">
    <timestep time="0.000">
        <vehicle id="train0" x="300.000000" y="-1.600000" angle="90.000000" type="leader" speed="0.000000" pos="300.000000" lane="e0_0" slope="0.000000" acceleration="0.000000"/>
        <vehicle id="train1" x="0.000000" y="-1.600000" angle="90.000000" type="follower" speed="0.000000" pos="0.000000" lane="e0_0" slope="0.000000" acceleration="0.000000"/>
    </timestep>
    <timestep time="1.000">
        <vehicle id="train0" x="300.250000" y="-1.600000" angle="90.000000" type="leader" speed="0.250000" pos="300.250000" lane="e0_0" slope="0.000000" acceleration="0.250000"/>
        <vehicle id="train1" x="0.250000" y="-1.600000" angle="90.000000" type="follower" speed="0.250000" pos="0.250000" lane="e0_0" slope="0.000000" acceleration="0.250000"/>
    </timestep>
    <timestep time="2.000">
        <vehicle id="train0" x="300.750000" y="-1.600000" angle="90.000000" type="leader" speed="0.500000" pos="300.750000" lane="e0_0" slope="0.000000" acceleration="0.250000"/>
        <vehicle id="train1" x="0.750000" y="-1.600000" angle="90.000000" type="follower" speed="0.500000" pos="0.750000" lane="e0_0" slope="0.000000" acceleration="0.250000"/>
    </timestep>
    <timestep time="3.000">
        <vehicle id="train0" x="301.500000" y="-1.600000" angle="90.000000" type="leader" speed="0.750000" pos="301.500000" lane="e0_0" slope="0.000000" acceleration="0.250000"/>
        <vehicle id="train1" x="1.500000" y="-1.600000" angle="90.000000" type="follower" speed="0.750000" pos="1.500000" lane="e0_0" slope="0.000000" acceleration="0.250000"/>
    </timestep>
    <timestep time="4.000">
        <vehicle id="train0" x="302.500000" y="-1.600000" angle="90.000000" type="leader" speed="1.000000" pos="302.500000" lane="e0_0" slope="0.000000" acceleration="0.250000"/>
        <vehicle id="train1" x="2.500000" y="-1.600000" angle="90.000000" type="follower" speed="1.000000" pos="2.500000" lane="e0_0" slope="0.000000" acceleration="0.250000"/>
    </timestep>
    <timestep time="5.000">
        <vehicle id="train0" x="303.750000" y="-1.600000" angle="90.000000" type="leader" speed="1.250000" pos="303.750000" lane="e0_0" slope="0.000000" acceleration="0.250000"/>
        <vehicle id="train1" x="3.750000" y="-1.600000" angle="90.000000" type="follower" speed="1.250000" pos="3.750000" lane="e0_0" slope="0.000000" acceleration="0.250000"/>
    </timestep>
    <timestep time="6.000">
        <vehicle id="train0" x="305.250000" y="-1.600000" angle="90.000000" type="leader" speed="1.500000" pos="305.250000" lane="e0_0" slope="0.000000" acceleration="0.250000"/>
        <vehicle id="train1" x="5.250000" y="-1.600000" angle="90.000000" type="follower" speed="1.500000" pos="5.250000" lane="e0_0" slope="0.000000" acceleration="0.250000"/>
    </timestep>
    <timestep time="7.000">
        <vehicle id="train0" x="307.000000" y="-1.600000" angle="90.000000" type="leader" speed="1.750000" pos="307.000000" lane="e0_0" slope="0.000000" acceleration="0.250000"/>
        <vehicle id="train1" x="7.000000" y="-1.600000" angle="90.000000" type="follower" speed="1.750000" pos="7.000000" lane="e0_0" slope="0.000000" acceleration="0.250000"/>
    </timestep>
    <timestep time="8.000">
        <vehicle id="train0" x="309.000000" y="-1.600000" angle="90.000000" type="leader" speed="2.000000" pos="309.000000" lane="e0_0" slope="0.000000" acceleration="0.250000"/>
        <vehicle id="train1" x="9.000000" y="-1.600000" angle="90.000000" type="follower" speed="2.000000" pos="9.000000" lane="e0_0" slope="0.000000" acceleration="0.250000"/>
    </timestep>
    <timestep time="9.000">
        <vehicle id="train0" x="311.250000" y="-1.600000" angle="90.000000" type="leader" speed="2.250000" pos="311.250000" lane="e0_0" slope="0.000000" acceleration="0.250000"/>
        <vehicle id="train1" x="11.250000" y="-1.600000" angle="90.000000" type="follower" speed="2.250000" pos="11.250000" lane="e0_0" slope="0.000000" acceleration="0.250000"/>
    </timestep>
    <timestep time="10.000">
        <vehicle id="train0" x="313.750000" y="-1.600000" angle="90.000000" type="leader" speed="2.500000" pos="313.750000" lane="e0_0" slope="0.000000" acceleration="0.250000"/>
        <vehicle id="train1" x="13.750000" y="-1.600000" angle="90.000000" type="follower" speed="2.500000" pos="13.750000" lane="e0_0" slope="0.000000" acceleration="0.250000"/>
    </timestep>
    <timestep time="11.000">
        <vehicle id="train0" x="316.500000" y="-1.600000" angle="90.000000" type="leader" speed="2.750000" pos="316.500000" lane="e0_0" slope="0.000000" acceleration="0.250000"/>
        <vehicle id="train1" x="16.500000" y="-1.600000" angle="90.000000" type="follower" speed="2.750000" pos="16.500000" lane="e0_0" slope="0.000000" acceleration="0.250000"/>
    </timestep>
    <timestep time="12.000">
        <vehicle id="train0" x="319.500000" y="-1.600000" angle="90.000000" type="leader" speed="3.000000" pos="319.500000" lane="e0_0" slope="0.000000" acceleration="0.250000"/>
        <vehicle id="train1" x="19.500000" y="-1.600000" angle="90.000000" type="follower" speed="3.000000" pos="19.500000" lane="e0_0" slope="0.000000" acceleration="0.250000"/>
    </timestep>
    <timestep time="13.000">
        <vehicle id="train0" x="322.750000" y="-1.600000" angle="90.000000" type="leader" speed="3.250000" pos="322.750000" lane="e0_0" slope="0.000000" acceleration="0.250000"/>
        <vehicle id="train1" x="22.750000" y="-1.600000" angle="90.000000" type="follower" speed="3.250000" pos="22.750000" lane="e0_0" slope="0.000000" acceleration="0.250000"/>
    </timestep>
    <timestep time="14.000">
        <vehicle id="train0" x="326.250000" y="-1.600000" angle="90.000000" type="leader" speed="3.500000" pos="326.250000" lane="e0_0" slope="0.000000" acceleration="0.250000"/>
        <vehicle id="train1" x="26.250000" y="-1.600000" angle="90.000000" type="follower" speed="3.500000" pos="26.250000" lane="e0_0" slope="0.000000" acceleration="0.250000"/>
    </timestep>
    <timestep time="15.000">
        <vehicle id="train0" x="330.000000" y="-1.600000" angle="90.000000" type="leader" speed="3.750000" pos="330.000000" lane="e0_0" slope="0.000000" acceleration="0.250000"/>
        <vehicle id="train1" x="30.000000" y="-1.600000" angle="90.000000" type="follower" speed="3.750000" pos="30.000000" lane="e0_0" slope="0.000000" acceleration="0.250000"/>
    </timestep>
    <timestep time="16.000">
        <vehicle id="train0" x="334.000000" y="-1.600000" angle="90.000000" type="leader" speed="4.000000" pos="334.000000" lane="e0_0" slope="0.000000" acceleration="0.250000"/>
        <vehicle id="train1" x="34.000000" y="-1.600000" angle="90.000000" type="follower" speed="4.000000" pos="34.000000" lane="e0_0" slope="0.000000" acceleration="0.250000"/>
    </timestep>
    <timestep time="17.000">
        <vehicle id="train0" x="338.250000" y="-1.600000" angle="90.000000" type="leader" speed="4.250000" pos="338.250000" lane="e0_0" slope="0.000000" acceleration="0.250000"/>
        <vehicle id="train1" x="38.250000" y="-1.600000" angle="90.000000" type="follower" speed="4.250000" pos="38.250000" lane="e0_0" slope="0.000000" acceleration="0.250000"/>
    </timestep>
    <timestep time="18.000">
        <vehicle id="train0" x="342.750000" y="-1.600000" angle="90.000000" type="leader" speed="4.500000" pos="342.750000" lane="e0_0" slope="0.000000" acceleration="0.250000"/>
        <vehicle id="train1" x="42.750000" y="-1.600000" angle="90.000000" type="follower" speed="4.500000" pos="42.750000" lane="e0_0" slope="0.000000" acceleration="0.250000"/>
    </timestep>
    <timestep time="19.000">
        <vehicle id="train0" x="347.500000" y="-1.600000" angle="90.000000" type="leader" speed="4.750000" pos="347.500000" lane="e0_0" slope="0.000000" acceleration="0.250000"/>
        <vehicle id="train1" x="47.500000" y="-1.600000" angle="90.000000" type="follower" speed="4.750000" pos="47.500000" lane="e0_0" slope="0.000000" acceleration="0.250000"/>
    </timestep>
    <timestep time="20.000">
        <vehicle id="train0" x="352.500000" y="-1.600000" angle="90.000000" type="leader" speed="5.000000" pos="352.500000" lane="e0_0" slope="0.000000" acceleration="0.250000"/>
        <vehicle id="train1" x="52.500000" y="-1.600000" angle="90.000000" type="follower" speed="5.000000" pos="52.500000" lane="e0_0" slope="0.000000" acceleration="0.250000"/>
    </timestep>
    <timestep time="21.000">
        <vehicle id="train0" x="357.500000" y="-1.600000" angle="90.000000" type="leader" speed="5.000000" pos="357.500000" lane="e0_0" slope="0.000000" acceleration="0.000000"/>
        <vehicle id="train1" x="57.750000" y="-1.600000" angle="90.000000" type="follower" speed="5.250000" pos="57.750000" lane="e0_0" slope="0.000000" acceleration="0.250000"/>
    </timestep>
    <timestep time="22.000">
        <vehicle id="train0" x="362.500000" y="-1.600000" angle="90.000000" type="leader" speed="5.000000" pos="362.500000" lane="e0_0" slope="0.000000" acceleration="0.000000"/>
        <vehicle id="train1" x="63.250000" y="-1.600000" angle="90.000000" type="follower" speed="5.500000" pos="63.250000" lane="e0_0" slope="0.000000" acceleration="0.250000"/>
    </timestep>
    <timestep time="23.000">
        <vehicle id="train0" x="367.500000" y="-1.600000" angle="90.000000" type="leader" speed="5.000000" pos="367.500000" lane="e0_0" slope="0.000000" acceleration="0.000000"/>
        <vehicle id="train1" x="69.000000" y="-1.600000" angle="90.000000" type="follower" speed="5.750000" pos="69.000000" lane="e0_0" slope="0.000000" acceleration="0.250000"/>
    </timestep>
    <timestep time="24.000">
        <vehicle id="train0" x="372.500000" y="-1.600000" angle="90.000000" type="leader" speed="5.000000" pos="372.500000" lane="e0_0" slope="0.000000" acceleration="0.000000"/>
        <vehicle id="train1" x="75.000000" y="-1.600000" angle="90.000000" type="follower" speed="6.000000" pos="75.000000" lane="e0_0" slope="0.000000" acceleration="0.250000"/>
    </timestep>
    <timestep time="25.000">
        <vehicle id="train0" x="377.500000" y="-1.600000" angle="90.000000" type="leader" speed="5.000000" pos="377.500000" lane="e0_0" slope="0.000000" acceleration="0.000000"/>
        <vehicle id="train1" x="81.250000" y="-1.600000" angle="90.000000" type="follower" speed="6.250000" pos="81.250000" lane="e0_0" slope="0.000000" acceleration="0.250000"/>
    </timestep>
    <timestep time="26.000">
        <vehicle id="train0" x="382.500000" y="-1.600000" angle="90.000000" type="leader" speed="5.000000" pos="382.500000" lane="e0_0" slope="0.000000" acceleration="0.000000"/>
        <vehicle id="train1" x="87.750000" y="-1.600000" angle="90.000000" type="follower" speed="6.500000" pos="87.750000" lane="e0_0" slope="0.000000" acceleration="0.250000"/>
    </timestep>
    <timestep time="27.000">
        <vehicle id="train0" x="387.500000" y="-1.600000" angle="90.000000" type="leader" speed="5.000000" pos="387.500000" lane="e0_0" slope="0.000000" acceleration="0.000000"/>
        <vehicle id="train1" x="94.500000" y="-1.600000" angle="90.000000" type="follower" speed="6.750000" pos="94.500000" lane="e0_0" slope="0.000000" acceleration="0.250000"/>
    </timestep>
    <timestep time="28.000">
        <vehicle id="train0" x="392.500000" y="-1.600000" angle="90.000000" type="leader" speed="5.000000" pos="392.500000" lane="e0_0" slope="0.000000" acceleration="0.000000"/>
        <vehicle id="train1" x="101.500000" y="-1.600000" angle="90.000000" type="follower" speed="7.000000" pos="101.500000" lane="e0_0" slope="0.000000" acceleration="0.250000"/>
    </timestep>
    <timestep time="29.000">
        <vehicle id="train0" x="397.500000" y="-1.600000" angle="90.000000" type="leader" speed="5.000000" pos="397.500000" lane="e0_0" slope="0.000000" acceleration="0.000000"/>
        <vehicle id="train1" x="108.750000" y="-1.600000" angle="90.000000" type="follower" speed="7.250000" pos="108.750000" lane="e0_0" slope="0.000000" acceleration="0.250000"/>
    </timestep>
    <timestep time="30.000">
        <vehicle id="train0" x="402.500000" y="-1.600000" angle="90.000000" type="leader" speed="5.000000" pos="402.500000" lane="e0_0" slope="0.000000" acceleration="0.000000"/>
        <vehicle id="train1" x="116.250000" y="-1.600000" angle="90.000000" type="follower" speed="7.500000" pos="116.250000" lane="e0_0" slope="0.000000" acceleration="0.250000"/>
    </timestep>
    <timestep time="31.000">
        <vehicle id="train0" x="407.500000" y="-1.600000" angle="90.000000" type="leader" speed="5.000000" pos="407.500000" lane="e0_0" slope="0.000000" acceleration="0.000000"/>
        <vehicle id="train1" x="124.000000" y="-1.600000" angle="90.000000" type="follower" speed="7.750000" pos="124.000000" lane="e0_0" slope="0.000000" acceleration="0.250000"/>
    </timestep>
    <timestep time="32.000">
        <vehicle id="train0" x="412.500000" y="-1.600000" angle="90.000000" type="leader" speed="5.000000" pos="412.500000" lane="e0_0" slope="0.000000" acceleration="0.000000"/>
        <vehicle id="train1" x="132.000000" y="-1.600000" angle="90.000000" type="follower" speed="8.000000" pos="132.000000" lane="e0_0" slope="0.000000" acceleration="0.250000"/>
    </timestep>
    <timestep time="33.000">
        <vehicle id="train0" x="417.500000" y="-1.600000" angle="90.000000" type="leader" speed="5.000000" pos="417.500000" lane="e0_0" slope="0.000000" acceleration="0.000000"/>
        <vehicle id="train1" x="140.250000" y="-1.600000" angle="90.000000" type="follower" speed="8.250000" pos="140.250000" lane="e0_0" slope="0.000000" acceleration="0.250000"/>
    </timestep>
    <timestep time="34.000">
        <vehicle id="train0" x="422.500000" y="-1.600000" angle="90.000000" type="leader" speed="5.000000" pos="422.500000" lane="e0_0" slope="0.000000" acceleration="0.000000"/>
        <vehicle id="train1" x="148.750000" y="-1.600000" angle="90.000000" type="follower" speed="8.500000" pos="148.750000" lane="e0_0" slope="0.000000" acceleration="0.250000"/>
    </timestep>
    <timestep time="35.000">
        <vehicle id="train0" x="427.500000" y="-1.600000" angle="90.000000" type="leader" speed="5.000000" pos="427.500000" lane="e0_0" slope="0.000000" acceleration="0.000000"/>
        <vehicle id="train1" x="157.500000" y="-1.600000" angle="90.000000" type="follower" speed="8.750000" pos="157.500000" lane="e0_0" slope="0.000000" acceleration="0.250000"/>
    </timestep>
    <timestep time="36.000">
        <vehicle id="train0" x="432.500000" y="-1.600000" angle="90.000000" type="leader" speed="5.000000" pos="432.500000" lane="e0_0" slope="0.000000" acceleration="0.000000"/>
        <vehicle id="train1" x="166.500000" y="-1.600000" angle="90.000000" type="follower" speed="9.000000" pos="166.500000" lane="e0_0" slope="0.000000" acceleration="0.250000"/>
    </timestep>
    <timestep time="37.000">
        <vehicle id="train0" x="437.500000" y="-1.600000" angle="90.000000" type="leader" speed="5.000000" pos="437.500000" lane="e0_0" slope="0.000000" acceleration="0.000000"/>
        <vehicle id="train1" x="175.750000" y="-1.600000" angle="90.000000" type="follower" speed="9.250000" pos="175.750000" lane="e0_0" slope="0.000000" acceleration="0.250000"/>
    </timestep>
    <timestep time="38.000">
        <vehicle id="train0" x="442.500000" y="-1.600000" angle="90.000000" type="leader" speed="5.000000" pos="442.500000" lane="e0_0" slope="0.000000" acceleration="0.000000"/>
        <vehicle id="train1" x="185.250000" y="-1.600000" angle="90.000000" type="follower" speed="9.500000" pos="185.250000" lane="e0_0" slope="0.000000" acceleration="0.250000"/>
    </timestep>
    <timestep time="39.000">
        <vehicle id="train0" x="447.500000" y="-1.600000" angle="90.000000" type="leader" speed="5.000000" pos="447.500000" lane="e0_0" slope="0.000000" acceleration="0.000000"/>
        <vehicle id="train1" x="195.000000" y="-1.600000" angle="90.000000" type="follower" speed="9.750000" pos="195.000000" lane="e0_0" slope="0.000000" acceleration="0.250000"/>
    </timestep>
    <timestep time="40.000">
        <vehicle id="train0" x="452.500000" y="-1.600000" angle="90.000000" type="leader" speed="5.000000" pos="452.500000" lane="e0_0" slope="0.000000" acceleration="0.000000"/>
        <vehicle id="train1" x="205.000000" y="-1.600000" angle="90.000000" type="follower" speed="10.000000" pos="205.000000" lane="e0_0" slope="0.000000" acceleration="0.250000"/>
    </timestep>
    <timestep time="41.000">
        <vehicle id="train0" x="457.500000" y="-1.600000" angle="90.000000" type="leader" speed="5.000000" pos="457.500000" lane="e0_0" slope="0.000000" acceleration="0.000000"/>
        <vehicle id="train1" x="215.250000" y="-1.600000" angle="90.000000" type="follower" speed="10.250000" pos="215.250000" lane="e0_0" slope="0.000000" acceleration="0.250000"/>
    </timestep>
    <timestep time="42.000">
        <vehicle id="train0" x="462.500000" y="-1.600000" angle="90.000000" type="leader" speed="5.000000" pos="462.500000" lane="e0_0" slope="0.000000" acceleration="0.000000"/>
        <vehicle id="train1" x="225.750000" y="-1.600000" angle="90.000000" type="follower" speed="10.500000" pos="225.750000" lane="e0_0" slope="0.000000" acceleration="0.250000"/>
    </timestep>
    <timestep time="43.000">
        <vehicle id="train0" x="467.500000" y="-1.600000" angle="90.000000" type="leader" speed="5.000000" pos="467.500000" lane="e0_0" slope="0.000000" acceleration="0.000000"/>
        <vehicle id="train1" x="236.500000" y="-1.600000" angle="90.000000" type="follower" speed="10.750000" pos="236.500000" lane="e0_0" slope="0.000000" acceleration="0.250000"/>
    </timestep>
    <timestep time="44.000">
        <vehicle id="train0" x="472.500000" y="-1.600000" angle="90.000000" type="leader" speed="5.000000" pos="472.500000" lane="e0_0" slope="0.000000" acceleration="0.000000"/>
        <vehicle id="train1" x="247.500000" y="-1.600000" angle="90.000000" type="follower" speed="11.000000" pos="247.500000" lane="e0_0" slope="0.000000" acceleration="0.250000"/>
    </timestep>
    <timestep time="45.000">
        <vehicle id="train0" x="477.500000" y="-1.600000" angle="90.000000" type="leader" speed="5.000000" pos="477.500000" lane="e0_0" slope="0.000000" acceleration="0.000000"/>
        <vehicle id="train1" x="258.750000" y="-1.600000" angle="90.000000" type="follower" speed="11.250000" pos="258.750000" lane="e0_0" slope="0.000000" acceleration="0.250000"/>
    </timestep>
    <timestep time="46.000">
        <vehicle id="train0" x="482.500000" y="-1.600000" angle="90.000000" type="leader" speed="5.000000" pos="482.500000" lane="e0_0" slope="0.000000" acceleration="0.000000"/>
        <vehicle id="train1" x="270.250000" y="-1.600000" angle="90.000000" type="follower" speed="11.500000" pos="270.250000" lane="e0_0" slope="0.000000" acceleration="0.250000"/>
    </timestep>
    <timestep time="47.000">
        <vehicle id="train0" x="487.500000" y="-1.600000" angle="90.000000" type="leader" speed="5.000000" pos="487.500000" lane="e0_0" slope="0.000000" acceleration="0.000000"/>
        <vehicle id="train1" x="282.000000" y="-1.600000" angle="90.000000" type="follower" speed="11.750000" pos="282.000000" lane="e0_0" slope="0.000000" acceleration="0.250000"/>
    </timestep>
    <timestep time="48.000">
        <vehicle id="train0" x="492.500000" y="-1.600000" angle="90.000000" type="leader" speed="5.000000" pos="492.500000" lane="e0_0" slope="0.000000" acceleration="0.000000"/>
        <vehicle id="train1" x="294.000000" y="-1.600000" angle="90.000000" type="follower" speed="12.000000" pos="294.000000" lane="e0_0" slope="0.000000" acceleration="0.250000"/>
    </timestep>
    <timestep time="49.000">
        <vehicle id="train0" x="497.500000" y="-1.600000" angle="90.000000" type="leader" speed="5.000000" pos="497.500000" lane="e0_0" slope="0.000000" acceleration="0.000000"/>
        <vehicle id="train1" x="306.250000" y="-1.600000" angle="90.000000" type="follower" speed="12.250000" pos="306.250000" lane="e0_0" slope="0.000000" acceleration="0.250000"/>
    </timestep>
    <timestep time="50.000">
        <vehicle id="train0" x="502.500000" y="-1.600000" angle="90.000000" type="leader" speed="5.000000" pos="502.500000" lane="e0_0" slope="0.000000" acceleration="0.000000"/>
        <vehicle id="train1" x="317.944333" y="-1.600000" angle="90.000000" type="follower" speed="11.694333" pos="317.944333" lane="e0_0" slope="0.000000" acceleration="-0.555667"/>
    </timestep>
    <timestep time="51.000">
        <vehicle id="train0" x="507.500000" y="-1.600000" angle="90.000000" type="leader" speed="5.000000" pos="507.500000" lane="e0_0" slope="0.000000" acceleration="0.000000"/>
        <vehicle id="train1" x="328.894852" y="-1.600000" angle="90.000000" type="follower" speed="10.950519" pos="328.894852" lane="e0_0" slope="0.000000" acceleration="-0.743815"/>
    </timestep>
    <timestep time="52.000">
        <vehicle id="train0" x="512.500000" y="-1.600000" angle="90.000000" type="leader" speed="5.000000" pos="512.500000" lane="e0_0" slope="0.000000" acceleration="0.000000"/>
        <vehicle id="train1" x="339.170370" y="-1.600000" angle="90.000000" type="follower" speed="10.275519" pos="339.170370" lane="e0_0" slope="0.000000" acceleration="-0.675000"/>
    </timestep>
    <timestep time="53.000">
        <vehicle id="train0" x="517.500000" y="-1.600000" angle="90.000000" type="leader" speed="5.000000" pos="517.500000" lane="e0_0" slope="0.000000" acceleration="0.000000"/>
        <vehicle id="train1" x="348.786449" y="-1.600000" angle="90.000000" type="follower" speed="9.616079" pos="348.786449" lane="e0_0" slope="0.000000" acceleration="-0.659440"/>
    </timestep>
    <timestep time="54.000">
        <vehicle id="train0" x="522.500000" y="-1.600000" angle="90.000000" type="leader" speed="5.000000" pos="522.500000" lane="e0_0" slope="0.000000" acceleration="0.000000"/>
        <vehicle id="train1" x="357.816813" y="-1.600000" angle="90.000000" type="follower" speed="9.030364" pos="357.816813" lane="e0_0" slope="0.000000" acceleration="-0.585714"/>
    </timestep>
    <timestep time="55.000">
        <vehicle id="train0" x="527.500000" y="-1.600000" angle="90.000000" type="leader" speed="5.000000" pos="527.500000" lane="e0_0" slope="0.000000" acceleration="0.000000"/>
        <vehicle id="train1" x="366.271412" y="-1.600000" angle="90.000000" type="follower" speed="8.454598" pos="366.271412" lane="e0_0" slope="0.000000" acceleration="-0.575766"/>
    </timestep>
    <timestep time="56.000">
        <vehicle id="train0" x="532.500000" y="-1.600000" angle="90.000000" type="leader" speed="5.000000" pos="532.500000" lane="e0_0" slope="0.000000" acceleration="0.000000"/>
        <vehicle id="train1" x="374.232496" y="-1.600000" angle="90.000000" type="follower" speed="7.961084" pos="374.232496" lane="e0_0" slope="0.000000" acceleration="-0.493514"/>
    </timestep>
    <timestep time="57.000">
        <vehicle id="train0" x="537.500000" y="-1.600000" angle="90.000000" type="leader" speed="5.000000" pos="537.500000" lane="e0_0" slope="0.000000" acceleration="0.000000"/>
        <vehicle id="train1" x="381.726913" y="-1.600000" angle="90.000000" type="follower" speed="7.494417" pos="381.726913" lane="e0_0" slope="0.000000" acceleration="-0.466667"/>
    </timestep>
    <timestep time="58.000">
        <vehicle id="train0" x="542.500000" y="-1.600000" angle="90.000000" type="leader" speed="5.000000" pos="542.500000" lane="e0_0" slope="0.000000" acceleration="0.000000"/>
        <vehicle id="train1" x="388.805594" y="-1.600000" angle="90.000000" type="follower" speed="7.078681" pos="388.805594" lane="e0_0" slope="0.000000" acceleration="-0.415736"/>
    </timestep>
    <timestep time="59.000">
        <vehicle id="train0" x="547.500000" y="-1.600000" angle="90.000000" type="leader" speed="5.000000" pos="547.500000" lane="e0_0" slope="0.000000" acceleration="0.000000"/>
        <vehicle id="train1" x="395.537828" y="-1.600000" angle="90.000000" type="follower" speed="6.732234" pos="395.537828" lane="e0_0" slope="0.000000" acceleration="-0.346447"/>
    </timestep>
    <timestep time="60.000">
        <vehicle id="train0" x="552.500000" y="-1.600000" angle="90.000000" type="leader" speed="5.000000" pos="552.500000" lane="e0_0" slope="0.000000" acceleration="0.000000"/>
        <vehicle id="train1" x="401.970063" y="-1.600000" angle="90.000000" type="follower" speed="6.432234" pos="401.970063" lane="e0_0" slope="0.000000" acceleration="-0.300000"/>
    </timestep>
    <timestep time="61.000">
        <vehicle id="train0" x="557.500000" y="-1.600000" angle="90.000000" type="leader" speed="5.000000" pos="557.500000" lane="e0_0" slope="0.000000" acceleration="0.000000"/>
        <vehicle id="train1" x="408.115850" y="-1.600000" angle="90.000000" type="follower" speed="6.145787" pos="408.115850" lane="e0_0" slope="0.000000" acceleration="-0.286447"/>
    </timestep>
    <timestep time="62.000">
        <vehicle id="train0" x="562.500000" y="-1.600000" angle="90.000000" type="leader" speed="5.000000" pos="562.500000" lane="e0_0" slope="0.000000" acceleration="0.000000"/>
        <vehicle id="train1" x="414.032480" y="-1.600000" angle="90.000000" type="follower" speed="5.916630" pos="414.032480" lane="e0_0" slope="0.000000" acceleration="-0.229157"/>
    </timestep>
    <timestep time="63.000">
        <vehicle id="train0" x="567.500000" y="-1.600000" angle="90.000000" type="leader" speed="5.000000" pos="567.500000" lane="e0_0" slope="0.000000" acceleration="0.000000"/>
        <vehicle id="train1" x="419.765784" y="-1.600000" angle="90.000000" type="follower" speed="5.733304" pos="419.765784" lane="e0_0" slope="0.000000" acceleration="-0.183326"/>
    </timestep>
    <timestep time="64.000">
        <vehicle id="train0" x="572.500000" y="-1.600000" angle="90.000000" type="leader" speed="5.000000" pos="572.500000" lane="e0_0" slope="0.000000" acceleration="0.000000"/>
        <vehicle id="train1" x="425.352427" y="-1.600000" angle="90.000000" type="follower" speed="5.586643" pos="425.352427" lane="e0_0" slope="0.000000" acceleration="-0.146661"/>
    </timestep>
    <timestep time="65.000">
        <vehicle id="train0" x="577.500000" y="-1.600000" angle="90.000000" type="leader" speed="5.000000" pos="577.500000" lane="e0_0" slope="0.000000" acceleration="0.000000"/>
        <vehicle id="train1" x="430.821742" y="-1.600000" angle="90.000000" type="follower" speed="5.469315" pos="430.821742" lane="e0_0" slope="0.000000" acceleration="-0.117329"/>
    </timestep>
    <timestep time="66.000">
        <vehicle id="train0" x="582.500000" y="-1.600000" angle="90.000000" type="leader" speed="5.000000" pos="582.500000" lane="e0_0" slope="0.000000" acceleration="0.000000"/>
        <vehicle id="train1" x="436.197193" y="-1.600000" angle="90.000000" type="follower" speed="5.375452" pos="436.197193" lane="e0_0" slope="0.000000" acceleration="-0.093863"/>
    </timestep>
    <timestep time="67.000">
        <vehicle id="train0" x="587.500000" y="-1.600000" angle="90.000000" type="leader" speed="5.000000" pos="587.500000" lane="e0_0" slope="0.000000" acceleration="0.000000"/>
        <vehicle id="train1" x="441.497555" y="-1.600000" angle="90.000000" type="follower" speed="5.300361" pos="441.497555" lane="e0_0" slope="0.000000" acceleration="-0.075090"/>
    </timestep>
    <timestep time="68.000">
        <vehicle id="train0" x="592.500000" y="-1.600000" angle="90.000000" type="leader" speed="5.000000" pos="592.500000" lane="e0_0" slope="0.000000" acceleration="0.000000"/>
        <vehicle id="train1" x="446.737844" y="-1.600000" angle="90.000000" type="follower" speed="5.240289" pos="446.737844" lane="e0_0" slope="0.000000" acceleration="-0.060072"/>
    </timestep>
    <timestep time="69.000">
        <vehicle id="train0" x="597.500000" y="-1.600000" angle="90.000000" type="leader" speed="5.000000" pos="597.500000" lane="e0_0" slope="0.000000" acceleration="0.000000"/>
        <vehicle id="train1" x="451.928133" y="-1.600000" angle="90.000000" type="follower" speed="5.190289" pos="451.928133" lane="e0_0" slope="0.000000" acceleration="-0.050000"/>
    </timestep>
    <timestep time="70.000">
        <vehicle id="train0" x="602.500000" y="-1.600000" angle="90.000000" type="leader" speed="5.000000" pos="602.500000" lane="e0_0" slope="0.000000" acceleration="0.000000"/>
        <vehicle id="train1" x="457.070850" y="-1.600000" angle="90.000000" type="follower" speed="5.142717" pos="457.070850" lane="e0_0" slope="0.000000" acceleration="-0.047572"/>
    </timestep>
    <timestep time="71.000">