<?xml version="1.0" encoding="UTF-8"?>

<!-- generated on 2026-07-10 02:28:40 by Eclipse SUMO sumo Version 1.20.0
<configuration xmlns:xsi="http://www.w3.org/2001/XMLSchema-instance" xsi:noNamespaceSchemaLocation="http://sumo.dlr.de/xsd/sumoConfiguration.xsd">

    <input>
        <net-file value="net.net.xml"/>
        <route-files value="rou.rou.xml"/>
    </input>

    <output>
        <precision value="6"/>
        <fcd-output value="golden.fcd.xml"/>
        <fcd-output.acceleration value="true"/>
        <save-state.times value="1"/>
        <save-state.files value="golden.state.xml"/>
    </output>

    <time>
        <begin value="0"/>
        <end value="30"/>
        <step-length value="1"/>
    </time>

    <processing>
        <step-method.ballistic value="false"/>
        <collision.action value="none"/>
        <time-to-teleport value="-1"/>
        <lanechange.duration value="0"/>
        <default.action-step-length value="1"/>
        <default.speeddev value="0"/>
    </processing>

    <report>
        <no-step-log value="true"/>
    </report>

    <random_number>
        <seed value="42"/>
    </random_number>

</configuration>
-->

<fcd-export xmlns:xsi="http://www.w3.org/2001/XMLSchema-instance" xsi:noNamespaceSchemaLocation="http://sumo.dlr.de/xsd/fcd_file.xsd">
    <timestep time="0.000">
        <vehicle id="veh0" x="5.000000" y="-1.600000" angle="90.000000" type="emg" speed="25.000000" pos="5.000000" lane="WJ_0" slope="0.000000" acceleration="0.000000"/>
    </timestep>
    <timestep time="1.000">
        <vehicle id="veh0" x="30.000000" y="-1.600000" angle="90.000000" type="emg" speed="25.000000" pos="30.000000" lane="WJ_0" slope="0.000000" acceleration="0.000000"/>
    </timestep>
    <timestep time="2.000">
        <vehicle id="veh0" x="55.000000" y="-1.600000" angle="90.000000" type="emg" speed="25.000000" pos="55.000000" lane="WJ_0" slope="0.000000" acceleration="0.000000"/>
    </timestep>
    <timestep time="3.000">
        <vehicle id="veh0" x="80.000000" y="-1.600000" angle="90.000000" type="emg" speed="25.000000" pos="80.000000" lane="WJ_0" slope="0.000000" acceleration="0.000000"/>
    </timestep>
    <timestep time="4.000">
        <vehicle id="veh0" x="105.000000" y="-1.600000" angle="90.000000" type="emg" speed="25.000000" pos="105.000000" lane="WJ_0" slope="0.000000" acceleration="0.000000"/>
    </timestep>
    <timestep time="5.000">
        <vehicle id="veh0" x="130.000000" y="-1.600000" angle="90.000000" type="emg" speed="25.000000" pos="130.000000" lane="WJ_0" slope="0.000000" acceleration="0.000000"/>
    </timestep>
    <timestep time="6.000">
        <vehicle id="veh0" x="155.000000" y="-1.600000" angle="90.000000" type="emg" speed="25.000000" pos="155.000000" lane="WJ_0" slope="0.000000" acceleration="0.000000"/>
    </timestep>
    <timestep time="7.000">
        <vehicle id="veh0" x="180.000000" y="-1.600000" angle="90.000000" type="emg" speed="25.000000" pos="180.000000" lane="WJ_0" slope="0.000000" acceleration="0.000000"/>
    </timestep>
    <timestep time="8.000">
        <vehicle id="veh0" x="205.000000" y="-1.600000" angle="90.000000" type="emg" speed="25.000000" pos="205.000000" lane="WJ_0" slope="0.000000" acceleration="0.000000"/>
    </timestep>
    <timestep time="9.000">
        <vehicle id="veh0" x="230.000000" y="-1.600000" angle="90.000000" type="emg" speed="25.000000" pos="230.000000" lane="WJ_0" slope="0.000000" acceleration="0.000000"/>
    </timestep>
    <timestep time="10.000">
        <vehicle id="veh0" x="255.000000" y="-1.600000" angle="90.000000" type="emg" speed="25.000000" pos="255.000000" lane="WJ_0" slope="0.000000" acceleration="0.000000"/>
    </timestep>
    <timestep time="11.000">
        <vehicle id="veh0" x="280.000000" y="-1.600000" angle="90.000000" type="emg" speed="25.000000" pos="280.000000" lane="WJ_0" slope="0.000000" acceleration="0.000000"/>
    </timestep>
    <timestep time="12.000">
        <vehicle id="veh0" x="304.900000" y="-1.600000" angle="90.000000" type="emg" speed="25.000000" pos="4.900000" lane="JE_0" slope="0.000000" acceleration="0.000000"/>
    </timestep>
    <timestep time="13.000">
        <vehicle id="veh0" x="329.900000" y="-1.600000" angle="90.000000" type="emg" speed="25.000000" pos="29.900000" lane="JE_0" slope="0.000000" acceleration="0.000000"/>
    </timestep>
    <timestep time="14.000">
        <vehicle id="veh0" x="354.900000" y="-1.600000" angle="90.000000" type="emg" speed="25.000000" pos="54.900000" lane="JE_0" slope="0.000000" acceleration="0.000000"/>
    </timestep>
    <timestep time="15.000">
        <vehicle id="veh0" x="379.900000" y="-1.600000" angle="90.000000" type="emg" speed="25.000000" pos="79.900000" lane="JE_0" slope="0.000000" acceleration="0.000000"/>
    </timestep>
    <timestep time="16.000">
        <vehicle id="veh0" x="404.900000" y="-1.600000" angle="90.000000" type="emg" speed="25.000000" pos="104.900000" lane="JE_0" slope="0.000000" acceleration="0.000000"/>
    </timestep>
    <timestep time="17.000">
        <vehicle id="veh0" x="429.900000" y="-1.600000" angle="90.000000" type="emg" speed="25.000000" pos="129.900000" lane="JE_0" slope="0.000000" acceleration="0.000000"/>
    </timestep>
    <timestep time="18.000">
        <vehicle id="veh0" x="454.900000" y="-1.600000" angle="90.000000" type="emg" speed="25.000000" pos="154.900000" lane="JE_0" slope="0.000000" acceleration="0.000000"/>
    </timestep>
    <timestep time="19.000">
        <vehicle id="veh0" x="479.900000" y="-1.600000" angle="90.000000" type="emg" speed="25.000000" pos="179.900000" lane="JE_0" slope="0.000000" acceleration="0.000000"/>
    </timestep>
    <timestep time="20.000">
        <vehicle id="veh0" x="504.900000" y="-1.600000" angle="90.000000" type="emg" speed="25.000000" pos="204.900000" lane="JE_0" slope="0.000000" acceleration="0.000000"/>
    </timestep>
    <timestep time="21.000">
        <vehicle id="veh0" x="529.900000" y="-1.600000" angle="90.000000" type="emg" speed="25.000000" pos="229.900000" lane="JE_0" slope="0.000000" acceleration="0.000000"/>
    </timestep>
    <timestep time="22.000">
        <vehicle id="veh0" x="554.900000" y="-1.600000" angle="90.000000" type="emg" speed="25.000000" pos="254.900000" lane="JE_0" slope="0.000000" acceleration="0.000000"/>
    </timestep>
    <timestep time="23.000">
        <vehicle id="veh0" x="579.900000" y="-1.600000" angle="90.000000" type="emg" speed="25.000000" pos="279.900000" lane="JE_0" slope="0.000000" acceleration="0.000000"/>
    </timestep>
    <timestep time="24.000"/>
    <timestep time="25.000"/>
    <timestep time="26.000"/>
    <timestep time="27.000"/>
    <timestep time="28.000"/>
    <timestep time="29.000"/>
</fcd-export>
