<?xml version="1.0" encoding="UTF-8"?>

<!-- generated on 2026-07-08 08:14:38 by Eclipse SUMO sumo Version 1.20.0
<configuration xmlns:xsi="http://www.w3.org/2001/XMLSchema-instance" xsi:noNamespaceSchemaLocation="http://sumo.dlr.de/xsd/sumoConfiguration.xsd">

    <input>
        <net-file value="net.net.xml"/>
        <route-files value="rou.rou.xml"/>
    </input>

    <output>
        <precision value="6"/>
        <fcd-output value="golden.fcd.xml"/>
        <fcd-output.acceleration value="true"/>
        <save-state.times value="1"/>
        <save-state.files value="golden.state.xml"/>
    </output>

    <time>
        <begin value="0"/>
        <end value="60"/>
        <step-length value="1"/>
    </time>

    <processing>
        <step-method.ballistic value="false"/>
        <collision.action value="none"/>
        <time-to-teleport value="-1"/>
        <lanechange.duration value="0"/>
        <default.action-step-length value="1"/>
        <default.speeddev value="0"/>
    </processing>

    <report>
        <no-step-log value="true"/>
    </report>

    <random_number>
        <seed value="42"/>
    </random_number>

</configuration>
-->

<fcd-export xmlns:xsi="http://www.w3.org/2001/XMLSchema-instance" xsi:noNamespaceSchemaLocation="http://sumo.dlr.de/xsd/fcd_file.xsd">
    <timestep time="0.000">
        <vehicle id="vSouth" x="201.600000" y="0.000000" angle="0.000000" type="car" speed="0.000000" pos="0.000000" lane="SJ_0" slope="0.000000" acceleration="0.000000"/>
    </timestep>
    <timestep time="1.000">
        <vehicle id="vSouth" x="201.600000" y="2.600000" angle="0.000000" type="car" speed="2.600000" pos="2.600000" lane="SJ_0" slope="0.000000" acceleration="2.600000"/>
    </timestep>
    <timestep time="2.000">
        <vehicle id="vSouth" x="201.600000" y="7.800000" angle="0.000000" type="car" speed="5.200000" pos="7.800000" lane="SJ_0" slope="0.000000" acceleration="2.600000"/>
    </timestep>
    <timestep time="3.000">
        <vehicle id="vSouth" x="201.600000" y="15.600000" angle="0.000000" type="car" speed="7.800000" pos="15.600000" lane="SJ_0" slope="0.000000" acceleration="2.600000"/>
        <vehicle id="vWest" x="0.000000" y="198.400000" angle="90.000000" type="car" speed="0.000000" pos="0.000000" lane="WJ_0" slope="0.000000" acceleration="0.000000"/>
    </timestep>
    <timestep time="4.000">
        <vehicle id="vSouth" x="201.600000" y="26.000000" angle="0.000000" type="car" speed="10.400000" pos="26.000000" lane="SJ_0" slope="0.000000" acceleration="2.600000"/>
        <vehicle id="vWest" x="2.600000" y="198.400000" angle="90.000000" type="car" speed="2.600000" pos="2.600000" lane="WJ_0" slope="0.000000" acceleration="2.600000"/>
    </timestep>
    <timestep time="5.000">
        <vehicle id="vSouth" x="201.600000" y="39.000000" angle="0.000000" type="car" speed="13.000000" pos="39.000000" lane="SJ_0" slope="0.000000" acceleration="2.600000"/>
        <vehicle id="vWest" x="7.800000" y="198.400000" angle="90.000000" type="car" speed="5.200000" pos="7.800000" lane="WJ_0" slope="0.000000" acceleration="2.600000"/>
    </timestep>
    <timestep time="6.000">
        <vehicle id="vSouth" x="201.600000" y="52.890000" angle="0.000000" type="car" speed="13.890000" pos="52.890000" lane="SJ_0" slope="0.000000" acceleration="0.890000"/>
        <vehicle id="vWest" x="15.600000" y="198.400000" angle="90.000000" type="car" speed="7.800000" pos="15.600000" lane="WJ_0" slope="0.000000" acceleration="2.600000"/>
    </timestep>
    <timestep time="7.000">
        <vehicle id="vSouth" x="201.600000" y="66.780000" angle="0.000000" type="car" speed="13.890000" pos="66.780000" lane="SJ_0" slope="0.000000" acceleration="0.000000"/>
        <vehicle id="vWest" x="26.000000" y="198.400000" angle="90.000000" type="car" speed="10.400000" pos="26.000000" lane="WJ_0" slope="0.000000" acceleration="2.600000"/>
    </timestep>
    <timestep time="8.000">
        <vehicle id="vSouth" x="201.600000" y="80.670000" angle="0.000000" type="car" speed="13.890000" pos="80.670000" lane="SJ_0" slope="0.000000" acceleration="0.000000"/>
        <vehicle id="vWest" x="39.000000" y="198.400000" angle="90.000000" type="car" speed="13.000000" pos="39.000000" lane="WJ_0" slope="0.000000" acceleration="2.600000"/>
    </timestep>
    <timestep time="9.000">
        <vehicle id="vSouth" x="201.600000" y="94.560000" angle="0.000000" type="car" speed="13.890000" pos="94.560000" lane="SJ_0" slope="0.000000" acceleration="0.000000"/>
        <vehicle id="vWest" x="52.890000" y="198.400000" angle="90.000000" type="car" speed="13.890000" pos="52.890000" lane="WJ_0" slope="0.000000" acceleration="0.890000"/>
    </timestep>
    <timestep time="10.000">
        <vehicle id="vSouth" x="201.600000" y="108.450000" angle="0.000000" type="car" speed="13.890000" pos="108.450000" lane="SJ_0" slope="0.000000" acceleration="0.000000"/>
        <vehicle id="vWest" x="66.780000" y="198.400000" angle="90.000000" type="car" speed="13.890000" pos="66.780000" lane="WJ_0" slope="0.000000" acceleration="0.000000"/>
    </timestep>
    <timestep time="11.000">
        <vehicle id="vSouth" x="201.600000" y="122.340000" angle="0.000000" type="car" speed="13.890000" pos="122.340000" lane="SJ_0" slope="0.000000" acceleration="0.000000"/>
        <vehicle id="vWest" x="80.670000" y="198.400000" angle="90.000000" type="car" speed="13.890000" pos="80.670000" lane="WJ_0" slope="0.000000" acceleration="0.000000"/>
    </timestep>
    <timestep time="12.000">
        <vehicle id="vSouth" x="201.600000" y="136.230000" angle="0.000000" type="car" speed="13.890000" pos="136.230000" lane="SJ_0" slope="0.000000" acceleration="0.000000"/>
        <vehicle id="vWest" x="94.560000" y="198.400000" angle="90.000000" type="car" speed="13.890000" pos="94.560000" lane="WJ_0" slope="0.000000" acceleration="0.000000"/>
    </timestep>
    <timestep time="13.000">
        <vehicle id="vSouth" x="201.600000" y="150.120000" angle="0.000000" type="car" speed="13.890000" pos="150.120000" lane="SJ_0" slope="0.000000" acceleration="0.000000"/>
        <vehicle id="vWest" x="108.450000" y="198.400000" angle="90.000000" type="car" speed="13.890000" pos="108.450000" lane="WJ_0" slope="0.000000" acceleration="0.000000"/>
    </timestep>
    <timestep time="14.000">
        <vehicle id="vSouth" x="201.600000" y="164.010000" angle="0.000000" type="car" speed="13.890000" pos="164.010000" lane="SJ_0" slope="0.000000" acceleration="0.000000"/>
        <vehicle id="vWest" x="122.340000" y="198.400000" angle="90.000000" type="car" speed="13.890000" pos="122.340000" lane="WJ_0" slope="0.000000" acceleration="0.000000"/>
    </timestep>
    <timestep time="15.000">
        <vehicle id="vSouth" x="201.600000" y="177.900000" angle="0.000000" type="car" speed="13.890000" pos="177.900000" lane="SJ_0" slope="0.000000" acceleration="0.000000"/>
        <vehicle id="vWest" x="136.230000" y="198.400000" angle="90.000000" type="car" speed="13.890000" pos="136.230000" lane="WJ_0" slope="0.000000" acceleration="0.000000"/>
    </timestep>
    <timestep time="16.000">
        <vehicle id="vSouth" x="201.600000" y="187.333000" angle="0.000000" type="car" speed="9.433000" pos="187.333000" lane="SJ_0" slope="0.000000" acceleration="-4.457000"/>
        <vehicle id="vWest" x="150.120000" y="198.400000" angle="90.000000" type="car" speed="13.890000" pos="150.120000" lane="WJ_0" slope="0.000000" acceleration="0.000000"/>
    </timestep>
    <timestep time="17.000">
        <vehicle id="vSouth" x="201.600000" y="192.266000" angle="0.000000" type="car" speed="4.933000" pos="192.266000" lane="SJ_0" slope="0.000000" acceleration="-4.500000"/>
        <vehicle id="vWest" x="164.010000" y="198.400000" angle="90.000000" type="car" speed="13.890000" pos="164.010000" lane="WJ_0" slope="0.000000" acceleration="0.000000"/>
    </timestep>
    <timestep time="18.000">
        <vehicle id="vSouth" x="201.600000" y="192.699000" angle="0.000000" type="car" speed="0.433000" pos="192.699000" lane="SJ_0" slope="0.000000" acceleration="-4.500000"/>
        <vehicle id="vWest" x="177.900000" y="198.400000" angle="90.000000" type="car" speed="13.890000" pos="177.900000" lane="WJ_0" slope="0.000000" acceleration="0.000000"/>
    </timestep>
    <timestep time="19.000">
        <vehicle id="vSouth" x="201.600000" y="192.699000" angle="0.000000" type="car" speed="0.000000" pos="192.699000" lane="SJ_0" slope="0.000000" acceleration="-0.433000"/>
        <vehicle id="vWest" x="188.399667" y="198.400000" angle="90.000000" type="car" speed="10.499667" pos="188.399667" lane="WJ_0" slope="0.000000" acceleration="-3.390333"/>
    </timestep>
    <timestep time="20.000">
        <vehicle id="vSouth" x="201.600000" y="195.299000" angle="0.000000" type="car" speed="2.600000" pos="2.499000" lane=":J_0_0" slope="0.000000" acceleration="2.600000"/>
        <vehicle id="vWest" x="194.399333" y="198.400000" angle="90.000000" type="car" speed="5.999667" pos="194.399333" lane="WJ_0" slope="0.000000" acceleration="-4.500000"/>
    </timestep>
    <timestep time="21.000">
        <vehicle id="vSouth" x="201.600000" y="200.499000" angle="0.000000" type="car" speed="5.200000" pos="7.699000" lane=":J_0_0" slope="0.000000" acceleration="2.600000"/>
        <vehicle id="vWest" x="195.899000" y="198.400000" angle="90.000000" type="car" speed="1.499667" pos="195.899000" lane="WJ_0" slope="0.000000" acceleration="-4.500000"/>
    </timestep>
    <timestep time="22.000">
        <vehicle id="vSouth" x="201.600000" y="208.299000" angle="0.000000" type="car" speed="7.800000" pos="4.299000" lane="JN_0" slope="0.000000" acceleration="2.600000"/>
        <vehicle id="vWest" x="195.899000" y="198.400000" angle="90.000000" type="car" speed="0.000000" pos="195.899000" lane="WJ_0" slope="0.000000" acceleration="-1.499667"/>
    </timestep>
    <timestep time="23.000">
        <vehicle id="vSouth" x="201.600000" y="218.699000" angle="0.000000" type="car" speed="10.400000" pos="14.699000" lane="JN_0" slope="0.000000" acceleration="2.600000"/>
        <vehicle id="vWest" x="198.499000" y="198.400000" angle="90.000000" type="car" speed="2.600000" pos="2.499000" lane=":J_1_0" slope="0.000000" acceleration="2.600000"/>
    </timestep>
    <timestep time="24.000">
        <vehicle id="vSouth" x="201.600000" y="231.699000" angle="0.000000" type="car" speed="13.000000" pos="27.699000" lane="JN_0" slope="0.000000" acceleration="2.600000"/>
        <vehicle id="vWest" x="203.699000" y="198.400000" angle="90.000000" type="car" speed="5.200000" pos="7.699000" lane=":J_1_0" slope="0.000000" acceleration="2.600000"/>
    </timestep>
    <timestep time="25.000">
        <vehicle id="vSouth" x="201.600000" y="245.589000" angle="0.000000" type="car" speed="13.890000" pos="41.589000" lane="JN_0" slope="0.000000" acceleration="0.890000"/>
        <vehicle id="vWest" x="211.499000" y="198.400000" angle="90.000000" type="car" speed="7.800000" pos="4.299000" lane="JE_0" slope="0.000000" acceleration="2.600000"/>
    </timestep>
    <timestep time="26.000">
        <vehicle id="vSouth" x="201.600000" y="259.479000" angle="0.000000" type="car" speed="13.890000" pos="55.479000" lane="JN_0" slope="0.000000" acceleration="0.000000"/>
        <vehicle id="vWest" x="221.899000" y="198.400000" angle="90.000000" type="car" speed="10.400000" pos="14.699000" lane="JE_0" slope="0.000000" acceleration="2.600000"/>
    </timestep>
    <timestep time="27.000">
        <vehicle id="vSouth" x="201.600000" y="273.369000" angle="0.000000" type="car" speed="13.890000" pos="69.369000" lane="JN_0" slope="0.000000" acceleration="0.000000"/>
        <vehicle id="vWest" x="234.899000" y="198.400000" angle="90.000000" type="car" speed="13.000000" pos="27.699000" lane="JE_0" slope="0.000000" acceleration="2.600000"/>
    </timestep>
    <timestep time="28.000">
        <vehicle id="vSouth" x="201.600000" y="287.259000" angle="0.000000" type="car" speed="13.890000" pos="83.259000" lane="JN_0" slope="0.000000" acceleration="0.000000"/>
        <vehicle id="vWest" x="248.789000" y="198.400000" angle="90.000000" type="car" speed="13.890000" pos="41.589000" lane="JE_0" slope="0.000000" acceleration="0.890000"/>
    </timestep>
    <timestep time="29.000">
        <vehicle id="vSouth" x="201.600000" y="301.149000" angle="0.000000" type="car" speed="13.890000" pos="97.149000" lane="JN_0" slope="0.000000" acceleration="0.000000"/>
        <vehicle id="vWest" x="262.679000" y="198.400000" angle="90.000000" type="car" speed="13.890000" pos="55.479000" lane="JE_0" slope="0.000000" acceleration="0.000000"/>
    </timestep>
    <timestep time="30.000">
        <vehicle id="vSouth" x="201.600000" y="315.039000" angle="0.000000" type="car" speed="13.890000" pos="111.039000" lane="JN_0" slope="0.000000" acceleration="0.000000"/>
        <vehicle id="vWest" x="276.569000" y="198.400000" angle="90.000000" type="car" speed="13.890000" pos="69.369000" lane="JE_0" slope="0.000000" acceleration="0.000000"/>
    </timestep>
    <timestep time="31.000">
        <vehicle id="vSouth" x="201.600000" y="328.929000" angle="0.000000" type="car" speed="13.890000" pos="124.929000" lane="JN_0" slope="0.000000" acceleration="0.000000"/>
        <vehicle id="vWest" x="290.459000" y="198.400000" angle="90.000000" type="car" speed="13.890000" pos="83.259000" lane="JE_0" slope="0.000000" acceleration="0.000000"/>
    </timestep>
    <timestep time="32.000">
        <vehicle id="vSouth" x="201.600000" y="342.819000" angle="0.000000" type="car" speed="13.890000" pos="138.819000" lane="JN_0" slope="0.000000" acceleration="0.000000"/>
        <vehicle id="vWest" x="304.349000" y="198.400000" angle="90.000000" type="car" speed="13.890000" pos="97.149000" lane="JE_0" slope="0.000000" acceleration="0.000000"/>
    </timestep>
    <timestep time="33.000">
        <vehicle id="vSouth" x="201.600000" y="356.709000" angle="0.000000" type="car" speed="13.890000" pos="152.709000" lane="JN_0" slope="0.000000" acceleration="0.000000"/>
        <vehicle id="vWest" x="318.239000" y="198.400000" angle="90.000000" type="car" speed="13.890000" pos="111.039000" lane="JE_0" slope="0.000000" acceleration="0.000000"/>
    </timestep>
    <timestep time="34.000">
        <vehicle id="vSouth" x="201.600000" y="370.599000" angle="0.000000" type="car" speed="13.890000" pos="166.599000" lane="JN_0" slope="0.000000" acceleration="0.000000"/>
        <vehicle id="vWest" x="332.129000" y="198.400000" angle="90.000000" type="car" speed="13.890000" pos="124.929000" lane="JE_0" slope="0.000000" acceleration="0.000000"/>
    </timestep>
    <timestep time="35.000">
        <vehicle id="vSouth" x="201.600000" y="384.489000" angle="0.000000" type="car" speed="13.890000" pos="180.489000" lane="JN_0" slope="0.000000" acceleration="0.000000"/>
        <vehicle id="vWest" x="346.019000" y="198.400000" angle="90.000000" type="car" speed="13.890000" pos="138.819000" lane="JE_0" slope="0.000000" acceleration="0.000000"/>
    </timestep>
    <timestep time="36.000">
        <vehicle id="vSouth" x="201.600000" y="398.379000" angle="0.000000" type="car" speed="13.890000" pos="194.379000" lane="JN_0" slope="0.000000" acceleration="0.000000"/>
        <vehicle id="vWest" x="359.909000" y="198.400000" angle="90.000000" type="car" speed="13.890000" pos="152.709000" lane="JE_0" slope="0.000000" acceleration="0.000000"/>
    </timestep>
    <timestep time="37.000">
        <vehicle id="vWest" x="373.799000" y="198.400000" angle="90.000000" type="car" speed="13.890000" pos="166.599000" lane="JE_0" slope="0.000000" acceleration="0.000000"/>
    </timestep>
    <timestep time="38.000">
        <vehicle id="vWest" x="387.689000" y="198.400000" angle="90.000000" type="car" speed="13.890000" pos="180.489000" lane="JE_0" slope="0.000000" acceleration="0.000000"/>
    </timestep>
    <timestep time="39.000"/>
    <timestep time="40.000"/>
    <timestep time="41.000"/>
    <timestep time="42.000"/>
    <timestep time="43.000"/>
    <timestep time="44.000"/>
    <timestep time="45.000"/>
    <timestep time="46.000"/>
    <timestep time="47.000"/>
    <timestep time="48.000"/>
    <timestep time="49.000"/>
    <timestep time="50.000"/>
    <timestep time="51.000"/>
    <timestep time="52.000"/>
    <timestep time="53.000"/>
    <timestep time="54.000"/>
    <timestep time="55.000"/>
    <timestep time="56.000"/>
    <timestep time="57.000"/>
    <timestep time="58.000"/>
    <timestep time="59.000"/>
</fcd-export>
