<?xml version="1.0" encoding="UTF-8"?>

<!-- generated on 2026-07-08 04:00:15 by Eclipse SUMO sumo Version 1.20.0
<configuration xmlns:xsi="http://www.w3.org/2001/XMLSchema-instance" xsi:noNamespaceSchemaLocation="http://sumo.dlr.de/xsd/sumoConfiguration.xsd">

    <input>
        <net-file value="net.net.xml"/>
        <route-files value="rou.rou.xml"/>
    </input>

    <output>
        <precision value="6"/>
        <fcd-output value="golden.ensemble/seed29.fcd.xml"/>
    </output>

    <time>
        <begin value="0"/>
        <end value="80"/>
        <step-length value="1"/>
    </time>

    <processing>
        <step-method.ballistic value="false"/>
        <collision.action value="none"/>
        <time-to-teleport value="-1"/>
        <default.action-step-length value="1"/>
        <default.speeddev value="0.1"/>
    </processing>

    <report>
        <no-step-log value="true"/>
    </report>

    <random_number>
        <seed value="29"/>
    </random_number>

</configuration>
-->

<fcd-export xmlns:xsi="http://www.w3.org/2001/XMLSchema-instance" xsi:noNamespaceSchemaLocation="http://sumo.dlr.de/xsd/fcd_file.xsd">
    <timestep time="0.000">
        <vehicle id="veh0" x="0.000000" y="-1.600000" angle="90.000000" type="hetero" speed="0.000000" pos="0.000000" lane="e0_0" slope="0.000000"/>
    </timestep>
    <timestep time="1.000">
        <vehicle id="veh0" x="2.600000" y="-1.600000" angle="90.000000" type="hetero" speed="2.600000" pos="2.600000" lane="e0_0" slope="0.000000"/>
    </timestep>
    <timestep time="2.000">
        <vehicle id="veh0" x="7.800000" y="-1.600000" angle="90.000000" type="hetero" speed="5.200000" pos="7.800000" lane="e0_0" slope="0.000000"/>
    </timestep>
    <timestep time="3.000">
        <vehicle id="veh0" x="15.600000" y="-1.600000" angle="90.000000" type="hetero" speed="7.800000" pos="15.600000" lane="e0_0" slope="0.000000"/>
    </timestep>
    <timestep time="4.000">
        <vehicle id="veh0" x="26.000000" y="-1.600000" angle="90.000000" type="hetero" speed="10.400000" pos="26.000000" lane="e0_0" slope="0.000000"/>
    </timestep>
    <timestep time="5.000">
        <vehicle id="veh0" x="39.000000" y="-1.600000" angle="90.000000" type="hetero" speed="13.000000" pos="39.000000" lane="e0_0" slope="0.000000"/>
    </timestep>
    <timestep time="6.000">
        <vehicle id="veh0" x="53.405319" y="-1.600000" angle="90.000000" type="hetero" speed="14.405319" pos="53.405319" lane="e0_0" slope="0.000000"/>
    </timestep>
    <timestep time="7.000">
        <vehicle id="veh0" x="67.810638" y="-1.600000" angle="90.000000" type="hetero" speed="14.405319" pos="67.810638" lane="e0_0" slope="0.000000"/>
    </timestep>
    <timestep time="8.000">
        <vehicle id="veh0" x="82.215957" y="-1.600000" angle="90.000000" type="hetero" speed="14.405319" pos="82.215957" lane="e0_0" slope="0.000000"/>
    </timestep>
    <timestep time="9.000">
        <vehicle id="veh0" x="96.621276" y="-1.600000" angle="90.000000" type="hetero" speed="14.405319" pos="96.621276" lane="e0_0" slope="0.000000"/>
    </timestep>
    <timestep time="10.000">
        <vehicle id="veh0" x="111.026595" y="-1.600000" angle="90.000000" type="hetero" speed="14.405319" pos="111.026595" lane="e0_0" slope="0.000000"/>
    </timestep>
    <timestep time="11.000">
        <vehicle id="veh0" x="125.431914" y="-1.600000" angle="90.000000" type="hetero" speed="14.405319" pos="125.431914" lane="e0_0" slope="0.000000"/>
    </timestep>
    <timestep time="12.000">
        <vehicle id="veh0" x="139.837233" y="-1.600000" angle="90.000000" type="hetero" speed="14.405319" pos="139.837233" lane="e0_0" slope="0.000000"/>
    </timestep>
    <timestep time="13.000">
        <vehicle id="veh0" x="154.242552" y="-1.600000" angle="90.000000" type="hetero" speed="14.405319" pos="154.242552" lane="e0_0" slope="0.000000"/>
    </timestep>
    <timestep time="14.000">
        <vehicle id="veh0" x="168.647871" y="-1.600000" angle="90.000000" type="hetero" speed="14.405319" pos="168.647871" lane="e0_0" slope="0.000000"/>
    </timestep>
    <timestep time="15.000">
        <vehicle id="veh0" x="183.053190" y="-1.600000" angle="90.000000" type="hetero" speed="14.405319" pos="183.053190" lane="e0_0" slope="0.000000"/>
    </timestep>
    <timestep time="16.000">
        <vehicle id="veh0" x="197.458509" y="-1.600000" angle="90.000000" type="hetero" speed="14.405319" pos="197.458509" lane="e0_0" slope="0.000000"/>
    </timestep>
    <timestep time="17.000">
        <vehicle id="veh0" x="211.863828" y="-1.600000" angle="90.000000" type="hetero" speed="14.405319" pos="211.863828" lane="e0_0" slope="0.000000"/>
    </timestep>
    <timestep time="18.000">
        <vehicle id="veh0" x="226.269147" y="-1.600000" angle="90.000000" type="hetero" speed="14.405319" pos="226.269147" lane="e0_0" slope="0.000000"/>
    </timestep>
    <timestep time="19.000">
        <vehicle id="veh0" x="240.674466" y="-1.600000" angle="90.000000" type="hetero" speed="14.405319" pos="240.674466" lane="e0_0" slope="0.000000"/>
    </timestep>
    <timestep time="20.000">
        <vehicle id="veh0" x="255.079785" y="-1.600000" angle="90.000000" type="hetero" speed="14.405319" pos="255.079785" lane="e0_0" slope="0.000000"/>
    </timestep>
    <timestep time="21.000">
        <vehicle id="veh0" x="269.485104" y="-1.600000" angle="90.000000" type="hetero" speed="14.405319" pos="269.485104" lane="e0_0" slope="0.000000"/>
    </timestep>
    <timestep time="22.000">
        <vehicle id="veh0" x="283.890423" y="-1.600000" angle="90.000000" type="hetero" speed="14.405319" pos="283.890423" lane="e0_0" slope="0.000000"/>
    </timestep>
    <timestep time="23.000">
        <vehicle id="veh0" x="298.295742" y="-1.600000" angle="90.000000" type="hetero" speed="14.405319" pos="298.295742" lane="e0_0" slope="0.000000"/>
    </timestep>
    <timestep time="24.000">
        <vehicle id="veh0" x="312.701061" y="-1.600000" angle="90.000000" type="hetero" speed="14.405319" pos="312.701061" lane="e0_0" slope="0.000000"/>
    </timestep>
    <timestep time="25.000">
        <vehicle id="veh0" x="327.106380" y="-1.600000" angle="90.000000" type="hetero" speed="14.405319" pos="327.106380" lane="e0_0" slope="0.000000"/>
    </timestep>
    <timestep time="26.000">
        <vehicle id="veh0" x="341.511699" y="-1.600000" angle="90.000000" type="hetero" speed="14.405319" pos="341.511699" lane="e0_0" slope="0.000000"/>
    </timestep>
    <timestep time="27.000">
        <vehicle id="veh0" x="355.917018" y="-1.600000" angle="90.000000" type="hetero" speed="14.405319" pos="355.917018" lane="e0_0" slope="0.000000"/>
    </timestep>
    <timestep time="28.000">
        <vehicle id="veh0" x="370.322337" y="-1.600000" angle="90.000000" type="hetero" speed="14.405319" pos="370.322337" lane="e0_0" slope="0.000000"/>
    </timestep>
    <timestep time="29.000">
        <vehicle id="veh0" x="384.727656" y="-1.600000" angle="90.000000" type="hetero" speed="14.405319" pos="384.727656" lane="e0_0" slope="0.000000"/>
    </timestep>
    <timestep time="30.000">
        <vehicle id="veh0" x="399.132975" y="-1.600000" angle="90.000000" type="hetero" speed="14.405319" pos="399.132975" lane="e0_0" slope="0.000000"/>
    </timestep>
    <timestep time="31.000">
        <vehicle id="veh0" x="413.538294" y="-1.600000" angle="90.000000" type="hetero" speed="14.405319" pos="413.538294" lane="e0_0" slope="0.000000"/>
    </timestep>
    <timestep time="32.000">
        <vehicle id="veh0" x="427.943613" y="-1.600000" angle="90.000000" type="hetero" speed="14.405319" pos="427.943613" lane="e0_0" slope="0.000000"/>
    </timestep>
    <timestep time="33.000">
        <vehicle id="veh0" x="442.348932" y="-1.600000" angle="90.000000" type="hetero" speed="14.405319" pos="442.348932" lane="e0_0" slope="0.000000"/>
    </timestep>
    <timestep time="34.000">
        <vehicle id="veh0" x="456.754251" y="-1.600000" angle="90.000000" type="hetero" speed="14.405319" pos="456.754251" lane="e0_0" slope="0.000000"/>
    </timestep>
    <timestep time="35.000">
        <vehicle id="veh0" x="471.159570" y="-1.600000" angle="90.000000" type="hetero" speed="14.405319" pos="471.159570" lane="e0_0" slope="0.000000"/>
    </timestep>
    <timestep time="36.000">
        <vehicle id="veh0" x="485.564889" y="-1.600000" angle="90.000000" type="hetero" speed="14.405319" pos="485.564889" lane="e0_0" slope="0.000000"/>
    </timestep>
    <timestep time="37.000">
        <vehicle id="veh0" x="499.970208" y="-1.600000" angle="90.000000" type="hetero" speed="14.405319" pos="499.970208" lane="e0_0" slope="0.000000"/>
    </timestep>
    <timestep time="38.000">
        <vehicle id="veh0" x="514.375527" y="-1.600000" angle="90.000000" type="hetero" speed="14.405319" pos="514.375527" lane="e0_0" slope="0.000000"/>
    </timestep>
    <timestep time="39.000">
        <vehicle id="veh0" x="528.780846" y="-1.600000" angle="90.000000" type="hetero" speed="14.405319" pos="528.780846" lane="e0_0" slope="0.000000"/>
    </timestep>
    <timestep time="40.000">
        <vehicle id="veh0" x="543.186165" y="-1.600000" angle="90.000000" type="hetero" speed="14.405319" pos="543.186165" lane="e0_0" slope="0.000000"/>
    </timestep>
    <timestep time="41.000">
        <vehicle id="veh0" x="557.591484" y="-1.600000" angle="90.000000" type="hetero" speed="14.405319" pos="557.591484" lane="e0_0" slope="0.000000"/>
    </timestep>
    <timestep time="42.000">
        <vehicle id="veh0" x="571.996803" y="-1.600000" angle="90.000000" type="hetero" speed="14.405319" pos="571.996803" lane="e0_0" slope="0.000000"/>
    </timestep>
    <timestep time="43.000">
        <vehicle id="veh0" x="586.402122" y="-1.600000" angle="90.000000" type="hetero" speed="14.405319" pos="586.402122" lane="e0_0" slope="0.000000"/>
    </timestep>
    <timestep time="44.000">
        <vehicle id="veh0" x="600.807441" y="-1.600000" angle="90.000000" type="hetero" speed="14.405319" pos="600.807441" lane="e0_0" slope="0.000000"/>
    </timestep>
    <timestep time="45.000">
        <vehicle id="veh0" x="615.212760" y="-1.600000" angle="90.000000" type="hetero" speed="14.405319" pos="615.212760" lane="e0_0" slope="0.000000"/>
    </timestep>
    <timestep time="46.000">
        <vehicle id="veh0" x="629.618079" y="-1.600000" angle="90.000000" type="hetero" speed="14.405319" pos="629.618079" lane="e0_0" slope="0.000000"/>
    </timestep>
    <timestep time="47.000">
        <vehicle id="veh0" x="644.023398" y="-1.600000" angle="90.000000" type="hetero" speed="14.405319" pos="644.023398" lane="e0_0" slope="0.000000"/>
    </timestep>
    <timestep time="48.000">
        <vehicle id="veh0" x="658.428717" y="-1.600000" angle="90.000000" type="hetero" speed="14.405319" pos="658.428717" lane="e0_0" slope="0.000000"/>
    </timestep>
    <timestep time="49.000">
        <vehicle id="veh0" x="672.834036" y="-1.600000" angle="90.000000" type="hetero" speed="14.405319" pos="672.834036" lane="e0_0" slope="0.000000"/>
    </timestep>
    <timestep time="50.000">
        <vehicle id="veh0" x="687.239355" y="-1.600000" angle="90.000000" type="hetero" speed="14.405319" pos="687.239355" lane="e0_0" slope="0.000000"/>
    </timestep>
    <timestep time="51.000">
        <vehicle id="veh0" x="701.644674" y="-1.600000" angle="90.000000" type="hetero" speed="14.405319" pos="701.644674" lane="e0_0" slope="0.000000"/>
    </timestep>
    <timestep time="52.000">
        <vehicle id="veh0" x="716.049993" y="-1.600000" angle="90.000000" type="hetero" speed="14.405319" pos="716.049993" lane="e0_0" slope="0.000000"/>
    </timestep>
    <timestep time="53.000">
        <vehicle id="veh0" x="730.455312" y="-1.600000" angle="90.000000" type="hetero" speed="14.405319" pos="730.455312" lane="e0_0" slope="0.000000"/>
    </timestep>
    <timestep time="54.000">
        <vehicle id="veh0" x="744.860631" y="-1.600000" angle="90.000000" type="hetero" speed="14.405319" pos="744.860631" lane="e0_0" slope="0.000000"/>
    </timestep>
    <timestep time="55.000">
        <vehicle id="veh0" x="759.265950" y="-1.600000" angle="90.000000" type="hetero" speed="14.405319" pos="759.265950" lane="e0_0" slope="0.000000"/>
    </timestep>
    <timestep time="56.000">
        <vehicle id="veh0" x="773.671269" y="-1.600000" angle="90.000000" type="hetero" speed="14.405319" pos="773.671269" lane="e0_0" slope="0.000000"/>
    </timestep>
    <timestep time="57.000">
        <vehicle id="veh0" x="788.076588" y="-1.600000" angle="90.000000" type="hetero" speed="14.405319" pos="788.076588" lane="e0_0" slope="0.000000"/>
    </timestep>
    <timestep time="58.000">
        <vehicle id="veh0" x="802.481907" y="-1.600000" angle="90.000000" type="hetero" speed="14.405319" pos="802.481907" lane="e0_0" slope="0.000000"/>
    </timestep>
    <timestep time="59.000">
        <vehicle id="veh0" x="816.887226" y="-1.600000" angle="90.000000" type="hetero" speed="14.405319" pos="816.887226" lane="e0_0" slope="0.000000"/>
    </timestep>
    <timestep time="60.000">
        <vehicle id="veh0" x="831.292545" y="-1.600000" angle="90.000000" type="hetero" speed="14.405319" pos="831.292545" lane="e0_0" slope="0.000000"/>
    </timestep>
    <timestep time="61.000">
        <vehicle id="veh0" x="845.697864" y="-1.600000" angle="90.000000" type="hetero" speed="14.405319" pos="845.697864" lane="e0_0" slope="0.000000"/>
    </timestep>
    <timestep time="62.000">
        <vehicle id="veh0" x="860.103183" y="-1.600000" angle="90.000000" type="hetero" speed="14.405319" pos="860.103183" lane="e0_0" slope="0.000000"/>
    </timestep>
    <timestep time="63.000">
        <vehicle id="veh0" x="874.508502" y="-1.600000" angle="90.000000" type="hetero" speed="14.405319" pos="874.508502" lane="e0_0" slope="0.000000"/>
    </timestep>
    <timestep time="64.000">
        <vehicle id="veh0" x="888.913821" y="-1.600000" angle="90.000000" type="hetero" speed="14.405319" pos="888.913821" lane="e0_0" slope="0.000000"/>
    </timestep>
    <timestep time="65.000">
        <vehicle id="veh0" x="903.319140" y="-1.600000" angle="90.000000" type="hetero" speed="14.405319" pos="903.319140" lane="e0_0" slope="0.000000"/>
    </timestep>
    <timestep time="66.000">
        <vehicle id="veh0" x="917.724459" y="-1.600000" angle="90.000000" type="hetero" speed="14.405319" pos="917.724459" lane="e0_0" slope="0.000000"/>
    </timestep>
    <timestep time="67.000">
        <vehicle id="veh0" x="932.129778" y="-1.600000" angle="90.000000" type="hetero" speed="14.405319" pos="932.129778" lane="e0_0" slope="0.000000"/>
    </timestep>
    <timestep time="68.000">
        <vehicle id="veh0" x="946.535097" y="-1.600000" angle="90.000000" type="hetero" speed="14.405319" pos="946.535097" lane="e0_0" slope="0.000000"/>
    </timestep>
    <timestep time="69.000">
        <vehicle id="veh0" x="960.940416" y="-1.600000" angle="90.000000" type="hetero" speed="14.405319" pos="960.940416" lane="e0_0" slope="0.000000"/>
    </timestep>
    <timestep time="70.000">
        <vehicle id="veh0" x="975.345735" y="-1.600000" angle="90.000000" type="hetero" speed="14.405319" pos="975.345735" lane="e0_0" slope="0.000000"/>
    </timestep>
    <timestep time="71.000">
        <vehicle id="veh0" x="989.751054" y="-1.600000" angle="90.000000" type="hetero" speed="14.405319" pos="989.751054" lane="e0_0" slope="0.000000"/>
    </timestep>
    <timestep time="72.000">
        <vehicle id="veh0" x="1004.156373" y="-1.600000" angle="90.000000" type="hetero" speed="14.405319" pos="1004.156373" lane="e0_0" slope="0.000000"/>
    </timestep>
    <timestep time="73.000">
        <vehicle id="veh0" x="1018.561692" y="-1.600000" angle="90.000000" type="hetero" speed="14.405319" pos="1018.561692" lane="e0_0" slope="0.000000"/>
    </timestep>
    <timestep time="74.000">
        <vehicle id="veh0" x="1032.967011" y="-1.600000" angle="90.000000" type="hetero" speed="14.405319" pos="1032.967011" lane="e0_0" slope="0.000000"/>
    </timestep>
    <timestep time="75.000">
        <vehicle id="veh0" x="1047.372330" y="-1.600000" angle="90.000000" type="hetero" speed="14.405319" pos="1047.372330" lane="e0_0" slope="0.000000"/>
    </timestep>
    <timestep time="76.000">
        <vehicle id="veh0" x="1061.777649" y="-1.600000" angle="90.000000" type="hetero" speed="14.405319" pos="1061.777649" lane="e0_0" slope="0.000000"/>
    </timestep>
    <timestep time="77.000">
        <vehicle id="veh0" x="1076.182968" y="-1.600000" angle="90.000000" type="hetero" speed="14.405319" pos="1076.182968" lane="e0_0" slope="0.000000"/>
    </timestep>
    <timestep time="78.000">
        <vehicle id="veh0" x="1090.588287" y="-1.600000" angle="90.000000" type="hetero" speed="14.405319" pos="1090.588287" lane="e0_0" slope="0.000000"/>
    </timestep>
    <timestep time="79.000">
        <vehicle id="veh0" x="1104.993606" y="-1.600000" angle="90.000000" type="hetero" speed="14.405319" pos="1104.993606" lane="e0_0" slope="0.000000"/>
    </timestep>
</fcd-export>
