<?xml version="1.0" encoding="UTF-8"?>

<!-- generated on 2026-07-08 04:00:14 by Eclipse SUMO sumo Version 1.20.0
<configuration xmlns:xsi="http://www.w3.org/2001/XMLSchema-instance" xsi:noNamespaceSchemaLocation="http://sumo.dlr.de/xsd/sumoConfiguration.xsd">

    <input>
        <net-file value="net.net.xml"/>
        <route-files value="rou.rou.xml"/>
    </input>

    <output>
        <precision value="6"/>
        <fcd-output value="golden.ensemble/seed18.fcd.xml"/>
    </output>

    <time>
        <begin value="0"/>
        <end value="80"/>
        <step-length value="1"/>
    </time>

    <processing>
        <step-method.ballistic value="false"/>
        <collision.action value="none"/>
        <time-to-teleport value="-1"/>
        <default.action-step-length value="1"/>
        <default.speeddev value="0.1"/>
    </processing>

    <report>
        <no-step-log value="true"/>
    </report>

    <random_number>
        <seed value="18"/>
    </random_number>

</configuration>
-->

<fcd-export xmlns:xsi="http://www.w3.org/2001/XMLSchema-instance" xsi:noNamespaceSchemaLocation="http://sumo.dlr.de/xsd/fcd_file.xsd">
    <timestep time="0.000">
        <vehicle id="veh0" x="0.000000" y="-1.600000" angle="90.000000" type="hetero" speed="0.000000" pos="0.000000" lane="e0_0" slope="0.000000"/>
    </timestep>
    <timestep time="1.000">
        <vehicle id="veh0" x="2.600000" y="-1.600000" angle="90.000000" type="hetero" speed="2.600000" pos="2.600000" lane="e0_0" slope="0.000000"/>
    </timestep>
    <timestep time="2.000">
        <vehicle id="veh0" x="7.800000" y="-1.600000" angle="90.000000" type="hetero" speed="5.200000" pos="7.800000" lane="e0_0" slope="0.000000"/>
    </timestep>
    <timestep time="3.000">
        <vehicle id="veh0" x="15.600000" y="-1.600000" angle="90.000000" type="hetero" speed="7.800000" pos="15.600000" lane="e0_0" slope="0.000000"/>
    </timestep>
    <timestep time="4.000">
        <vehicle id="veh0" x="26.000000" y="-1.600000" angle="90.000000" type="hetero" speed="10.400000" pos="26.000000" lane="e0_0" slope="0.000000"/>
    </timestep>
    <timestep time="5.000">
        <vehicle id="veh0" x="39.000000" y="-1.600000" angle="90.000000" type="hetero" speed="13.000000" pos="39.000000" lane="e0_0" slope="0.000000"/>
    </timestep>
    <timestep time="6.000">
        <vehicle id="veh0" x="53.191413" y="-1.600000" angle="90.000000" type="hetero" speed="14.191413" pos="53.191413" lane="e0_0" slope="0.000000"/>
    </timestep>
    <timestep time="7.000">
        <vehicle id="veh0" x="67.382826" y="-1.600000" angle="90.000000" type="hetero" speed="14.191413" pos="67.382826" lane="e0_0" slope="0.000000"/>
    </timestep>
    <timestep time="8.000">
        <vehicle id="veh0" x="81.574239" y="-1.600000" angle="90.000000" type="hetero" speed="14.191413" pos="81.574239" lane="e0_0" slope="0.000000"/>
    </timestep>
    <timestep time="9.000">
        <vehicle id="veh0" x="95.765652" y="-1.600000" angle="90.000000" type="hetero" speed="14.191413" pos="95.765652" lane="e0_0" slope="0.000000"/>
    </timestep>
    <timestep time="10.000">
        <vehicle id="veh0" x="109.957065" y="-1.600000" angle="90.000000" type="hetero" speed="14.191413" pos="109.957065" lane="e0_0" slope="0.000000"/>
    </timestep>
    <timestep time="11.000">
        <vehicle id="veh0" x="124.148478" y="-1.600000" angle="90.000000" type="hetero" speed="14.191413" pos="124.148478" lane="e0_0" slope="0.000000"/>
    </timestep>
    <timestep time="12.000">
        <vehicle id="veh0" x="138.339891" y="-1.600000" angle="90.000000" type="hetero" speed="14.191413" pos="138.339891" lane="e0_0" slope="0.000000"/>
    </timestep>
    <timestep time="13.000">
        <vehicle id="veh0" x="152.531304" y="-1.600000" angle="90.000000" type="hetero" speed="14.191413" pos="152.531304" lane="e0_0" slope="0.000000"/>
    </timestep>
    <timestep time="14.000">
        <vehicle id="veh0" x="166.722717" y="-1.600000" angle="90.000000" type="hetero" speed="14.191413" pos="166.722717" lane="e0_0" slope="0.000000"/>
    </timestep>
    <timestep time="15.000">
        <vehicle id="veh0" x="180.914130" y="-1.600000" angle="90.000000" type="hetero" speed="14.191413" pos="180.914130" lane="e0_0" slope="0.000000"/>
    </timestep>
    <timestep time="16.000">
        <vehicle id="veh0" x="195.105543" y="-1.600000" angle="90.000000" type="hetero" speed="14.191413" pos="195.105543" lane="e0_0" slope="0.000000"/>
    </timestep>
    <timestep time="17.000">
        <vehicle id="veh0" x="209.296956" y="-1.600000" angle="90.000000" type="hetero" speed="14.191413" pos="209.296956" lane="e0_0" slope="0.000000"/>
    </timestep>
    <timestep time="18.000">
        <vehicle id="veh0" x="223.488369" y="-1.600000" angle="90.000000" type="hetero" speed="14.191413" pos="223.488369" lane="e0_0" slope="0.000000"/>
    </timestep>
    <timestep time="19.000">
        <vehicle id="veh0" x="237.679782" y="-1.600000" angle="90.000000" type="hetero" speed="14.191413" pos="237.679782" lane="e0_0" slope="0.000000"/>
    </timestep>
    <timestep time="20.000">
        <vehicle id="veh0" x="251.871195" y="-1.600000" angle="90.000000" type="hetero" speed="14.191413" pos="251.871195" lane="e0_0" slope="0.000000"/>
    </timestep>
    <timestep time="21.000">
        <vehicle id="veh0" x="266.062608" y="-1.600000" angle="90.000000" type="hetero" speed="14.191413" pos="266.062608" lane="e0_0" slope="0.000000"/>
    </timestep>
    <timestep time="22.000">
        <vehicle id="veh0" x="280.254021" y="-1.600000" angle="90.000000" type="hetero" speed="14.191413" pos="280.254021" lane="e0_0" slope="0.000000"/>
    </timestep>
    <timestep time="23.000">
        <vehicle id="veh0" x="294.445434" y="-1.600000" angle="90.000000" type="hetero" speed="14.191413" pos="294.445434" lane="e0_0" slope="0.000000"/>
    </timestep>
    <timestep time="24.000">
        <vehicle id="veh0" x="308.636847" y="-1.600000" angle="90.000000" type="hetero" speed="14.191413" pos="308.636847" lane="e0_0" slope="0.000000"/>
    </timestep>
    <timestep time="25.000">
        <vehicle id="veh0" x="322.828260" y="-1.600000" angle="90.000000" type="hetero" speed="14.191413" pos="322.828260" lane="e0_0" slope="0.000000"/>
    </timestep>
    <timestep time="26.000">
        <vehicle id="veh0" x="337.019673" y="-1.600000" angle="90.000000" type="hetero" speed="14.191413" pos="337.019673" lane="e0_0" slope="0.000000"/>
    </timestep>
    <timestep time="27.000">
        <vehicle id="veh0" x="351.211086" y="-1.600000" angle="90.000000" type="hetero" speed="14.191413" pos="351.211086" lane="e0_0" slope="0.000000"/>
    </timestep>
    <timestep time="28.000">
        <vehicle id="veh0" x="365.402499" y="-1.600000" angle="90.000000" type="hetero" speed="14.191413" pos="365.402499" lane="e0_0" slope="0.000000"/>
    </timestep>
    <timestep time="29.000">
        <vehicle id="veh0" x="379.593912" y="-1.600000" angle="90.000000" type="hetero" speed="14.191413" pos="379.593912" lane="e0_0" slope="0.000000"/>
    </timestep>
    <timestep time="30.000">
        <vehicle id="veh0" x="393.785325" y="-1.600000" angle="90.000000" type="hetero" speed="14.191413" pos="393.785325" lane="e0_0" slope="0.000000"/>
    </timestep>
    <timestep time="31.000">
        <vehicle id="veh0" x="407.976738" y="-1.600000" angle="90.000000" type="hetero" speed="14.191413" pos="407.976738" lane="e0_0" slope="0.000000"/>
    </timestep>
    <timestep time="32.000">
        <vehicle id="veh0" x="422.168151" y="-1.600000" angle="90.000000" type="hetero" speed="14.191413" pos="422.168151" lane="e0_0" slope="0.000000"/>
    </timestep>
    <timestep time="33.000">
        <vehicle id="veh0" x="436.359564" y="-1.600000" angle="90.000000" type="hetero" speed="14.191413" pos="436.359564" lane="e0_0" slope="0.000000"/>
    </timestep>
    <timestep time="34.000">
        <vehicle id="veh0" x="450.550977" y="-1.600000" angle="90.000000" type="hetero" speed="14.191413" pos="450.550977" lane="e0_0" slope="0.000000"/>
    </timestep>
    <timestep time="35.000">
        <vehicle id="veh0" x="464.742390" y="-1.600000" angle="90.000000" type="hetero" speed="14.191413" pos="464.742390" lane="e0_0" slope="0.000000"/>
    </timestep>
    <timestep time="36.000">
        <vehicle id="veh0" x="478.933803" y="-1.600000" angle="90.000000" type="hetero" speed="14.191413" pos="478.933803" lane="e0_0" slope="0.000000"/>
    </timestep>
    <timestep time="37.000">
        <vehicle id="veh0" x="493.125216" y="-1.600000" angle="90.000000" type="hetero" speed="14.191413" pos="493.125216" lane="e0_0" slope="0.000000"/>
    </timestep>
    <timestep time="38.000">
        <vehicle id="veh0" x="507.316629" y="-1.600000" angle="90.000000" type="hetero" speed="14.191413" pos="507.316629" lane="e0_0" slope="0.000000"/>
    </timestep>
    <timestep time="39.000">
        <vehicle id="veh0" x="521.508042" y="-1.600000" angle="90.000000" type="hetero" speed="14.191413" pos="521.508042" lane="e0_0" slope="0.000000"/>
    </timestep>
    <timestep time="40.000">
        <vehicle id="veh0" x="535.699455" y="-1.600000" angle="90.000000" type="hetero" speed="14.191413" pos="535.699455" lane="e0_0" slope="0.000000"/>
    </timestep>
    <timestep time="41.000">
        <vehicle id="veh0" x="549.890868" y="-1.600000" angle="90.000000" type="hetero" speed="14.191413" pos="549.890868" lane="e0_0" slope="0.000000"/>
    </timestep>
    <timestep time="42.000">
        <vehicle id="veh0" x="564.082281" y="-1.600000" angle="90.000000" type="hetero" speed="14.191413" pos="564.082281" lane="e0_0" slope="0.000000"/>
    </timestep>
    <timestep time="43.000">
        <vehicle id="veh0" x="578.273694" y="-1.600000" angle="90.000000" type="hetero" speed="14.191413" pos="578.273694" lane="e0_0" slope="0.000000"/>
    </timestep>
    <timestep time="44.000">
        <vehicle id="veh0" x="592.465107" y="-1.600000" angle="90.000000" type="hetero" speed="14.191413" pos="592.465107" lane="e0_0" slope="0.000000"/>
    </timestep>
    <timestep time="45.000">
        <vehicle id="veh0" x="606.656520" y="-1.600000" angle="90.000000" type="hetero" speed="14.191413" pos="606.656520" lane="e0_0" slope="0.000000"/>
    </timestep>
    <timestep time="46.000">
        <vehicle id="veh0" x="620.847933" y="-1.600000" angle="90.000000" type="hetero" speed="14.191413" pos="620.847933" lane="e0_0" slope="0.000000"/>
    </timestep>
    <timestep time="47.000">
        <vehicle id="veh0" x="635.039346" y="-1.600000" angle="90.000000" type="hetero" speed="14.191413" pos="635.039346" lane="e0_0" slope="0.000000"/>
    </timestep>
    <timestep time="48.000">
        <vehicle id="veh0" x="649.230759" y="-1.600000" angle="90.000000" type="hetero" speed="14.191413" pos="649.230759" lane="e0_0" slope="0.000000"/>
    </timestep>
    <timestep time="49.000">
        <vehicle id="veh0" x="663.422172" y="-1.600000" angle="90.000000" type="hetero" speed="14.191413" pos="663.422172" lane="e0_0" slope="0.000000"/>
    </timestep>
    <timestep time="50.000">
        <vehicle id="veh0" x="677.613585" y="-1.600000" angle="90.000000" type="hetero" speed="14.191413" pos="677.613585" lane="e0_0" slope="0.000000"/>
    </timestep>
    <timestep time="51.000">
        <vehicle id="veh0" x="691.804998" y="-1.600000" angle="90.000000" type="hetero" speed="14.191413" pos="691.804998" lane="e0_0" slope="0.000000"/>
    </timestep>
    <timestep time="52.000">
        <vehicle id="veh0" x="705.996411" y="-1.600000" angle="90.000000" type="hetero" speed="14.191413" pos="705.996411" lane="e0_0" slope="0.000000"/>
    </timestep>
    <timestep time="53.000">
        <vehicle id="veh0" x="720.187824" y="-1.600000" angle="90.000000" type="hetero" speed="14.191413" pos="720.187824" lane="e0_0" slope="0.000000"/>
    </timestep>
    <timestep time="54.000">
        <vehicle id="veh0" x="734.379237" y="-1.600000" angle="90.000000" type="hetero" speed="14.191413" pos="734.379237" lane="e0_0" slope="0.000000"/>
    </timestep>
    <timestep time="55.000">
        <vehicle id="veh0" x="748.570650" y="-1.600000" angle="90.000000" type="hetero" speed="14.191413" pos="748.570650" lane="e0_0" slope="0.000000"/>
    </timestep>
    <timestep time="56.000">
        <vehicle id="veh0" x="762.762063" y="-1.600000" angle="90.000000" type="hetero" speed="14.191413" pos="762.762063" lane="e0_0" slope="0.000000"/>
    </timestep>
    <timestep time="57.000">
        <vehicle id="veh0" x="776.953476" y="-1.600000" angle="90.000000" type="hetero" speed="14.191413" pos="776.953476" lane="e0_0" slope="0.000000"/>
    </timestep>
    <timestep time="58.000">
        <vehicle id="veh0" x="791.144889" y="-1.600000" angle="90.000000" type="hetero" speed="14.191413" pos="791.144889" lane="e0_0" slope="0.000000"/>
    </timestep>
    <timestep time="59.000">
        <vehicle id="veh0" x="805.336302" y="-1.600000" angle="90.000000" type="hetero" speed="14.191413" pos="805.336302" lane="e0_0" slope="0.000000"/>
    </timestep>
    <timestep time="60.000">
        <vehicle id="veh0" x="819.527715" y="-1.600000" angle="90.000000" type="hetero" speed="14.191413" pos="819.527715" lane="e0_0" slope="0.000000"/>
    </timestep>
    <timestep time="61.000">
        <vehicle id="veh0" x="833.719128" y="-1.600000" angle="90.000000" type="hetero" speed="14.191413" pos="833.719128" lane="e0_0" slope="0.000000"/>
    </timestep>
    <timestep time="62.000">
        <vehicle id="veh0" x="847.910541" y="-1.600000" angle="90.000000" type="hetero" speed="14.191413" pos="847.910541" lane="e0_0" slope="0.000000"/>
    </timestep>
    <timestep time="63.000">
        <vehicle id="veh0" x="862.101954" y="-1.600000" angle="90.000000" type="hetero" speed="14.191413" pos="862.101954" lane="e0_0" slope="0.000000"/>
    </timestep>
    <timestep time="64.000">
        <vehicle id="veh0" x="876.293367" y="-1.600000" angle="90.000000" type="hetero" speed="14.191413" pos="876.293367" lane="e0_0" slope="0.000000"/>
    </timestep>
    <timestep time="65.000">
        <vehicle id="veh0" x="890.484780" y="-1.600000" angle="90.000000" type="hetero" speed="14.191413" pos="890.484780" lane="e0_0" slope="0.000000"/>
    </timestep>
    <timestep time="66.000">
        <vehicle id="veh0" x="904.676193" y="-1.600000" angle="90.000000" type="hetero" speed="14.191413" pos="904.676193" lane="e0_0" slope="0.000000"/>
    </timestep>
    <timestep time="67.000">
        <vehicle id="veh0" x="918.867606" y="-1.600000" angle="90.000000" type="hetero" speed="14.191413" pos="918.867606" lane="e0_0" slope="0.000000"/>
    </timestep>
    <timestep time="68.000">
        <vehicle id="veh0" x="933.059019" y="-1.600000" angle="90.000000" type="hetero" speed="14.191413" pos="933.059019" lane="e0_0" slope="0.000000"/>
    </timestep>
    <timestep time="69.000">
        <vehicle id="veh0" x="947.250432" y="-1.600000" angle="90.000000" type="hetero" speed="14.191413" pos="947.250432" lane="e0_0" slope="0.000000"/>
    </timestep>
    <timestep time="70.000">
        <vehicle id="veh0" x="961.441845" y="-1.600000" angle="90.000000" type="hetero" speed="14.191413" pos="961.441845" lane="e0_0" slope="0.000000"/>
    </timestep>
    <timestep time="71.000">
        <vehicle id="veh0" x="975.633258" y="-1.600000" angle="90.000000" type="hetero" speed="14.191413" pos="975.633258" lane="e0_0" slope="0.000000"/>
    </timestep>
    <timestep time="72.000">
        <vehicle id="veh0" x="989.824671" y="-1.600000" angle="90.000000" type="hetero" speed="14.191413" pos="989.824671" lane="e0_0" slope="0.000000"/>
    </timestep>
    <timestep time="73.000">
        <vehicle id="veh0" x="1004.016084" y="-1.600000" angle="90.000000" type="hetero" speed="14.191413" pos="1004.016084" lane="e0_0" slope="0.000000"/>
    </timestep>
    <timestep time="74.000">
        <vehicle id="veh0" x="1018.207497" y="-1.600000" angle="90.000000" type="hetero" speed="14.191413" pos="1018.207497" lane="e0_0" slope="0.000000"/>
    </timestep>
    <timestep time="75.000">
        <vehicle id="veh0" x="1032.398910" y="-1.600000" angle="90.000000" type="hetero" speed="14.191413" pos="1032.398910" lane="e0_0" slope="0.000000"/>
    </timestep>
    <timestep time="76.000">
        <vehicle id="veh0" x="1046.590323" y="-1.600000" angle="90.000000" type="hetero" speed="14.191413" pos="1046.590323" lane="e0_0" slope="0.000000"/>
    </timestep>
    <timestep time="77.000">
        <vehicle id="veh0" x="1060.781736" y="-1.600000" angle="90.000000" type="hetero" speed="14.191413" pos="1060.781736" lane="e0_0" slope="0.000000"/>
    </timestep>
    <timestep time="78.000">
        <vehicle id="veh0" x="1074.973149" y="-1.600000" angle="90.000000" type="hetero" speed="14.191413" pos="1074.973149" lane="e0_0" slope="0.000000"/>
    </timestep>
    <timestep time="79.000">
        <vehicle id="veh0" x="1089.164562" y="-1.600000" angle="90.000000" type="hetero" speed="14.191413" pos="1089.164562" lane="e0_0" slope="0.000000"/>
    </timestep>
</fcd-export>
