<?xml version="1.0" encoding="UTF-8"?>

<!-- generated on 2026-07-08 04:00:14 by Eclipse SUMO sumo Version 1.20.0
<configuration xmlns:xsi="http://www.w3.org/2001/XMLSchema-instance" xsi:noNamespaceSchemaLocation="http://sumo.dlr.de/xsd/sumoConfiguration.xsd">

    <input>
        <net-file value="net.net.xml"/>
        <route-files value="rou.rou.xml"/>
    </input>

    <output>
        <precision value="6"/>
        <fcd-output value="golden.ensemble/seed22.fcd.xml"/>
    </output>

    <time>
        <begin value="0"/>
        <end value="80"/>
        <step-length value="1"/>
    </time>

    <processing>
        <step-method.ballistic value="false"/>
        <collision.action value="none"/>
        <time-to-teleport value="-1"/>
        <default.action-step-length value="1"/>
        <default.speeddev value="0.1"/>
    </processing>

    <report>
        <no-step-log value="true"/>
    </report>

    <random_number>
        <seed value="22"/>
    </random_number>

</configuration>
-->

<fcd-export xmlns:xsi="http://www.w3.org/2001/XMLSchema-instance" xsi:noNamespaceSchemaLocation="http://sumo.dlr.de/xsd/fcd_file.xsd">
    <timestep time="0.000">
        <vehicle id="veh0" x="0.000000" y="-1.600000" angle="90.000000" type="hetero" speed="0.000000" pos="0.000000" lane="e0_0" slope="0.000000"/>
    </timestep>
    <timestep time="1.000">
        <vehicle id="veh0" x="2.600000" y="-1.600000" angle="90.000000" type="hetero" speed="2.600000" pos="2.600000" lane="e0_0" slope="0.000000"/>
    </timestep>
    <timestep time="2.000">
        <vehicle id="veh0" x="7.800000" y="-1.600000" angle="90.000000" type="hetero" speed="5.200000" pos="7.800000" lane="e0_0" slope="0.000000"/>
    </timestep>
    <timestep time="3.000">
        <vehicle id="veh0" x="15.600000" y="-1.600000" angle="90.000000" type="hetero" speed="7.800000" pos="15.600000" lane="e0_0" slope="0.000000"/>
    </timestep>
    <timestep time="4.000">
        <vehicle id="veh0" x="26.000000" y="-1.600000" angle="90.000000" type="hetero" speed="10.400000" pos="26.000000" lane="e0_0" slope="0.000000"/>
    </timestep>
    <timestep time="5.000">
        <vehicle id="veh0" x="38.552393" y="-1.600000" angle="90.000000" type="hetero" speed="12.552393" pos="38.552393" lane="e0_0" slope="0.000000"/>
    </timestep>
    <timestep time="6.000">
        <vehicle id="veh0" x="51.104786" y="-1.600000" angle="90.000000" type="hetero" speed="12.552393" pos="51.104786" lane="e0_0" slope="0.000000"/>
    </timestep>
    <timestep time="7.000">
        <vehicle id="veh0" x="63.657179" y="-1.600000" angle="90.000000" type="hetero" speed="12.552393" pos="63.657179" lane="e0_0" slope="0.000000"/>
    </timestep>
    <timestep time="8.000">
        <vehicle id="veh0" x="76.209572" y="-1.600000" angle="90.000000" type="hetero" speed="12.552393" pos="76.209572" lane="e0_0" slope="0.000000"/>
    </timestep>
    <timestep time="9.000">
        <vehicle id="veh0" x="88.761965" y="-1.600000" angle="90.000000" type="hetero" speed="12.552393" pos="88.761965" lane="e0_0" slope="0.000000"/>
    </timestep>
    <timestep time="10.000">
        <vehicle id="veh0" x="101.314358" y="-1.600000" angle="90.000000" type="hetero" speed="12.552393" pos="101.314358" lane="e0_0" slope="0.000000"/>
    </timestep>
    <timestep time="11.000">
        <vehicle id="veh0" x="113.866751" y="-1.600000" angle="90.000000" type="hetero" speed="12.552393" pos="113.866751" lane="e0_0" slope="0.000000"/>
    </timestep>
    <timestep time="12.000">
        <vehicle id="veh0" x="126.419144" y="-1.600000" angle="90.000000" type="hetero" speed="12.552393" pos="126.419144" lane="e0_0" slope="0.000000"/>
    </timestep>
    <timestep time="13.000">
        <vehicle id="veh0" x="138.971537" y="-1.600000" angle="90.000000" type="hetero" speed="12.552393" pos="138.971537" lane="e0_0" slope="0.000000"/>
    </timestep>
    <timestep time="14.000">
        <vehicle id="veh0" x="151.523930" y="-1.600000" angle="90.000000" type="hetero" speed="12.552393" pos="151.523930" lane="e0_0" slope="0.000000"/>
    </timestep>
    <timestep time="15.000">
        <vehicle id="veh0" x="164.076323" y="-1.600000" angle="90.000000" type="hetero" speed="12.552393" pos="164.076323" lane="e0_0" slope="0.000000"/>
    </timestep>
    <timestep time="16.000">
        <vehicle id="veh0" x="176.628716" y="-1.600000" angle="90.000000" type="hetero" speed="12.552393" pos="176.628716" lane="e0_0" slope="0.000000"/>
    </timestep>
    <timestep time="17.000">
        <vehicle id="veh0" x="189.181109" y="-1.600000" angle="90.000000" type="hetero" speed="12.552393" pos="189.181109" lane="e0_0" slope="0.000000"/>
    </timestep>
    <timestep time="18.000">
        <vehicle id="veh0" x="201.733502" y="-1.600000" angle="90.000000" type="hetero" speed="12.552393" pos="201.733502" lane="e0_0" slope="0.000000"/>
    </timestep>
    <timestep time="19.000">
        <vehicle id="veh0" x="214.285895" y="-1.600000" angle="90.000000" type="hetero" speed="12.552393" pos="214.285895" lane="e0_0" slope="0.000000"/>
    </timestep>
    <timestep time="20.000">
        <vehicle id="veh0" x="226.838288" y="-1.600000" angle="90.000000" type="hetero" speed="12.552393" pos="226.838288" lane="e0_0" slope="0.000000"/>
    </timestep>
    <timestep time="21.000">
        <vehicle id="veh0" x="239.390681" y="-1.600000" angle="90.000000" type="hetero" speed="12.552393" pos="239.390681" lane="e0_0" slope="0.000000"/>
    </timestep>
    <timestep time="22.000">
        <vehicle id="veh0" x="251.943074" y="-1.600000" angle="90.000000" type="hetero" speed="12.552393" pos="251.943074" lane="e0_0" slope="0.000000"/>
    </timestep>
    <timestep time="23.000">
        <vehicle id="veh0" x="264.495467" y="-1.600000" angle="90.000000" type="hetero" speed="12.552393" pos="264.495467" lane="e0_0" slope="0.000000"/>
    </timestep>
    <timestep time="24.000">
        <vehicle id="veh0" x="277.047860" y="-1.600000" angle="90.000000" type="hetero" speed="12.552393" pos="277.047860" lane="e0_0" slope="0.000000"/>
    </timestep>
    <timestep time="25.000">
        <vehicle id="veh0" x="289.600253" y="-1.600000" angle="90.000000" type="hetero" speed="12.552393" pos="289.600253" lane="e0_0" slope="0.000000"/>
    </timestep>
    <timestep time="26.000">
        <vehicle id="veh0" x="302.152646" y="-1.600000" angle="90.000000" type="hetero" speed="12.552393" pos="302.152646" lane="e0_0" slope="0.000000"/>
    </timestep>
    <timestep time="27.000">
        <vehicle id="veh0" x="314.705039" y="-1.600000" angle="90.000000" type="hetero" speed="12.552393" pos="314.705039" lane="e0_0" slope="0.000000"/>
    </timestep>
    <timestep time="28.000">
        <vehicle id="veh0" x="327.257432" y="-1.600000" angle="90.000000" type="hetero" speed="12.552393" pos="327.257432" lane="e0_0" slope="0.000000"/>
    </timestep>
    <timestep time="29.000">
        <vehicle id="veh0" x="339.809825" y="-1.600000" angle="90.000000" type="hetero" speed="12.552393" pos="339.809825" lane="e0_0" slope="0.000000"/>
    </timestep>
    <timestep time="30.000">
        <vehicle id="veh0" x="352.362218" y="-1.600000" angle="90.000000" type="hetero" speed="12.552393" pos="352.362218" lane="e0_0" slope="0.000000"/>
    </timestep>
    <timestep time="31.000">
        <vehicle id="veh0" x="364.914611" y="-1.600000" angle="90.000000" type="hetero" speed="12.552393" pos="364.914611" lane="e0_0" slope="0.000000"/>
    </timestep>
    <timestep time="32.000">
        <vehicle id="veh0" x="377.467004" y="-1.600000" angle="90.000000" type="hetero" speed="12.552393" pos="377.467004" lane="e0_0" slope="0.000000"/>
    </timestep>
    <timestep time="33.000">
        <vehicle id="veh0" x="390.019397" y="-1.600000" angle="90.000000" type="hetero" speed="12.552393" pos="390.019397" lane="e0_0" slope="0.000000"/>
    </timestep>
    <timestep time="34.000">
        <vehicle id="veh0" x="402.571790" y="-1.600000" angle="90.000000" type="hetero" speed="12.552393" pos="402.571790" lane="e0_0" slope="0.000000"/>
    </timestep>
    <timestep time="35.000">
        <vehicle id="veh0" x="415.124183" y="-1.600000" angle="90.000000" type="hetero" speed="12.552393" pos="415.124183" lane="e0_0" slope="0.000000"/>
    </timestep>
    <timestep time="36.000">
        <vehicle id="veh0" x="427.676576" y="-1.600000" angle="90.000000" type="hetero" speed="12.552393" pos="427.676576" lane="e0_0" slope="0.000000"/>
    </timestep>
    <timestep time="37.000">
        <vehicle id="veh0" x="440.228969" y="-1.600000" angle="90.000000" type="hetero" speed="12.552393" pos="440.228969" lane="e0_0" slope="0.000000"/>
    </timestep>
    <timestep time="38.000">
        <vehicle id="veh0" x="452.781362" y="-1.600000" angle="90.000000" type="hetero" speed="12.552393" pos="452.781362" lane="e0_0" slope="0.000000"/>
    </timestep>
    <timestep time="39.000">
        <vehicle id="veh0" x="465.333755" y="-1.600000" angle="90.000000" type="hetero" speed="12.552393" pos="465.333755" lane="e0_0" slope="0.000000"/>
    </timestep>
    <timestep time="40.000">
        <vehicle id="veh0" x="477.886148" y="-1.600000" angle="90.000000" type="hetero" speed="12.552393" pos="477.886148" lane="e0_0" slope="0.000000"/>
    </timestep>
    <timestep time="41.000">
        <vehicle id="veh0" x="490.438541" y="-1.600000" angle="90.000000" type="hetero" speed="12.552393" pos="490.438541" lane="e0_0" slope="0.000000"/>
    </timestep>
    <timestep time="42.000">
        <vehicle id="veh0" x="502.990934" y="-1.600000" angle="90.000000" type="hetero" speed="12.552393" pos="502.990934" lane="e0_0" slope="0.000000"/>
    </timestep>
    <timestep time="43.000">
        <vehicle id="veh0" x="515.543327" y="-1.600000" angle="90.000000" type="hetero" speed="12.552393" pos="515.543327" lane="e0_0" slope="0.000000"/>
    </timestep>
    <timestep time="44.000">
        <vehicle id="veh0" x="528.095720" y="-1.600000" angle="90.000000" type="hetero" speed="12.552393" pos="528.095720" lane="e0_0" slope="0.000000"/>
    </timestep>
    <timestep time="45.000">
        <vehicle id="veh0" x="540.648113" y="-1.600000" angle="90.000000" type="hetero" speed="12.552393" pos="540.648113" lane="e0_0" slope="0.000000"/>
    </timestep>
    <timestep time="46.000">
        <vehicle id="veh0" x="553.200506" y="-1.600000" angle="90.000000" type="hetero" speed="12.552393" pos="553.200506" lane="e0_0" slope="0.000000"/>
    </timestep>
    <timestep time="47.000">
        <vehicle id="veh0" x="565.752899" y="-1.600000" angle="90.000000" type="hetero" speed="12.552393" pos="565.752899" lane="e0_0" slope="0.000000"/>
    </timestep>
    <timestep time="48.000">
        <vehicle id="veh0" x="578.305292" y="-1.600000" angle="90.000000" type="hetero" speed="12.552393" pos="578.305292" lane="e0_0" slope="0.000000"/>
    </timestep>
    <timestep time="49.000">
        <vehicle id="veh0" x="590.857685" y="-1.600000" angle="90.000000" type="hetero" speed="12.552393" pos="590.857685" lane="e0_0" slope="0.000000"/>
    </timestep>
    <timestep time="50.000">
        <vehicle id="veh0" x="603.410078" y="-1.600000" angle="90.000000" type="hetero" speed="12.552393" pos="603.410078" lane="e0_0" slope="0.000000"/>
    </timestep>
    <timestep time="51.000">
        <vehicle id="veh0" x="615.962471" y="-1.600000" angle="90.000000" type="hetero" speed="12.552393" pos="615.962471" lane="e0_0" slope="0.000000"/>
    </timestep>
    <timestep time="52.000">
        <vehicle id="veh0" x="628.514864" y="-1.600000" angle="90.000000" type="hetero" speed="12.552393" pos="628.514864" lane="e0_0" slope="0.000000"/>
    </timestep>
    <timestep time="53.000">
        <vehicle id="veh0" x="641.067257" y="-1.600000" angle="90.000000" type="hetero" speed="12.552393" pos="641.067257" lane="e0_0" slope="0.000000"/>
    </timestep>
    <timestep time="54.000">
        <vehicle id="veh0" x="653.619650" y="-1.600000" angle="90.000000" type="hetero" speed="12.552393" pos="653.619650" lane="e0_0" slope="0.000000"/>
    </timestep>
    <timestep time="55.000">
        <vehicle id="veh0" x="666.172043" y="-1.600000" angle="90.000000" type="hetero" speed="12.552393" pos="666.172043" lane="e0_0" slope="0.000000"/>
    </timestep>
    <timestep time="56.000">
        <vehicle id="veh0" x="678.724436" y="-1.600000" angle="90.000000" type="hetero" speed="12.552393" pos="678.724436" lane="e0_0" slope="0.000000"/>
    </timestep>
    <timestep time="57.000">
        <vehicle id="veh0" x="691.276829" y="-1.600000" angle="90.000000" type="hetero" speed="12.552393" pos="691.276829" lane="e0_0" slope="0.000000"/>
    </timestep>
    <timestep time="58.000">
        <vehicle id="veh0" x="703.829222" y="-1.600000" angle="90.000000" type="hetero" speed="12.552393" pos="703.829222" lane="e0_0" slope="0.000000"/>
    </timestep>
    <timestep time="59.000">
        <vehicle id="veh0" x="716.381615" y="-1.600000" angle="90.000000" type="hetero" speed="12.552393" pos="716.381615" lane="e0_0" slope="0.000000"/>
    </timestep>
    <timestep time="60.000">
        <vehicle id="veh0" x="728.934008" y="-1.600000" angle="90.000000" type="hetero" speed="12.552393" pos="728.934008" lane="e0_0" slope="0.000000"/>
    </timestep>
    <timestep time="61.000">
        <vehicle id="veh0" x="741.486401" y="-1.600000" angle="90.000000" type="hetero" speed="12.552393" pos="741.486401" lane="e0_0" slope="0.000000"/>
    </timestep>
    <timestep time="62.000">
        <vehicle id="veh0" x="754.038794" y="-1.600000" angle="90.000000" type="hetero" speed="12.552393" pos="754.038794" lane="e0_0" slope="0.000000"/>
    </timestep>
    <timestep time="63.000">
        <vehicle id="veh0" x="766.591187" y="-1.600000" angle="90.000000" type="hetero" speed="12.552393" pos="766.591187" lane="e0_0" slope="0.000000"/>
    </timestep>
    <timestep time="64.000">
        <vehicle id="veh0" x="779.143580" y="-1.600000" angle="90.000000" type="hetero" speed="12.552393" pos="779.143580" lane="e0_0" slope="0.000000"/>
    </timestep>
    <timestep time="65.000">
        <vehicle id="veh0" x="791.695973" y="-1.600000" angle="90.000000" type="hetero" speed="12.552393" pos="791.695973" lane="e0_0" slope="0.000000"/>
    </timestep>
    <timestep time="66.000">
        <vehicle id="veh0" x="804.248366" y="-1.600000" angle="90.000000" type="hetero" speed="12.552393" pos="804.248366" lane="e0_0" slope="0.000000"/>
    </timestep>
    <timestep time="67.000">
        <vehicle id="veh0" x="816.800759" y="-1.600000" angle="90.000000" type="hetero" speed="12.552393" pos="816.800759" lane="e0_0" slope="0.000000"/>
    </timestep>
    <timestep time="68.000">
        <vehicle id="veh0" x="829.353152" y="-1.600000" angle="90.000000" type="hetero" speed="12.552393" pos="829.353152" lane="e0_0" slope="0.000000"/>
    </timestep>
    <timestep time="69.000">
        <vehicle id="veh0" x="841.905545" y="-1.600000" angle="90.000000" type="hetero" speed="12.552393" pos="841.905545" lane="e0_0" slope="0.000000"/>
    </timestep>
    <timestep time="70.000">
        <vehicle id="veh0" x="854.457938" y="-1.600000" angle="90.000000" type="hetero" speed="12.552393" pos="854.457938" lane="e0_0" slope="0.000000"/>
    </timestep>
    <timestep time="71.000">
        <vehicle id="veh0" x="867.010331" y="-1.600000" angle="90.000000" type="hetero" speed="12.552393" pos="867.010331" lane="e0_0" slope="0.000000"/>
    </timestep>
    <timestep time="72.000">
        <vehicle id="veh0" x="879.562724" y="-1.600000" angle="90.000000" type="hetero" speed="12.552393" pos="879.562724" lane="e0_0" slope="0.000000"/>
    </timestep>
    <timestep time="73.000">
        <vehicle id="veh0" x="892.115117" y="-1.600000" angle="90.000000" type="hetero" speed="12.552393" pos="892.115117" lane="e0_0" slope="0.000000"/>
    </timestep>
    <timestep time="74.000">
        <vehicle id="veh0" x="904.667510" y="-1.600000" angle="90.000000" type="hetero" speed="12.552393" pos="904.667510" lane="e0_0" slope="0.000000"/>
    </timestep>
    <timestep time="75.000">
        <vehicle id="veh0" x="917.219903" y="-1.600000" angle="90.000000" type="hetero" speed="12.552393" pos="917.219903" lane="e0_0" slope="0.000000"/>
    </timestep>
    <timestep time="76.000">
        <vehicle id="veh0" x="929.772296" y="-1.600000" angle="90.000000" type="hetero" speed="12.552393" pos="929.772296" lane="e0_0" slope="0.000000"/>
    </timestep>
    <timestep time="77.000">
        <vehicle id="veh0" x="942.324689" y="-1.600000" angle="90.000000" type="hetero" speed="12.552393" pos="942.324689" lane="e0_0" slope="0.000000"/>
    </timestep>
    <timestep time="78.000">
        <vehicle id="veh0" x="954.877082" y="-1.600000" angle="90.000000" type="hetero" speed="12.552393" pos="954.877082" lane="e0_0" slope="0.000000"/>
    </timestep>
    <timestep time="79.000">
        <vehicle id="veh0" x="967.429475" y="-1.600000" angle="90.000000" type="hetero" speed="12.552393" pos="967.429475" lane="e0_0" slope="0.000000"/>
    </timestep>
</fcd-export>
