<?xml version="1.0" encoding="UTF-8"?>

<!-- generated on 2026-07-08 04:00:16 by Eclipse SUMO sumo Version 1.20.0
<configuration xmlns:xsi="http://www.w3.org/2001/XMLSchema-instance" xsi:noNamespaceSchemaLocation="http://sumo.dlr.de/xsd/sumoConfiguration.xsd">

    <input>
        <net-file value="net.net.xml"/>
        <route-files value="rou.rou.xml"/>
    </input>

    <output>
        <precision value="6"/>
        <fcd-output value="golden.ensemble/seed42.fcd.xml"/>
    </output>

    <time>
        <begin value="0"/>
        <end value="80"/>
        <step-length value="1"/>
    </time>

    <processing>
        <step-method.ballistic value="false"/>
        <collision.action value="none"/>
        <time-to-teleport value="-1"/>
        <default.action-step-length value="1"/>
        <default.speeddev value="0.1"/>
    </processing>

    <report>
        <no-step-log value="true"/>
    </report>

    <random_number>
        <seed value="42"/>
    </random_number>

</configuration>
-->

<fcd-export xmlns:xsi="http://www.w3.org/2001/XMLSchema-instance" xsi:noNamespaceSchemaLocation="http://sumo.dlr.de/xsd/fcd_file.xsd">
    <timestep time="0.000">
        <vehicle id="veh0" x="0.000000" y="-1.600000" angle="90.000000" type="hetero" speed="0.000000" pos="0.000000" lane="e0_0" slope="0.000000"/>
    </timestep>
    <timestep time="1.000">
        <vehicle id="veh0" x="2.600000" y="-1.600000" angle="90.000000" type="hetero" speed="2.600000" pos="2.600000" lane="e0_0" slope="0.000000"/>
    </timestep>
    <timestep time="2.000">
        <vehicle id="veh0" x="7.800000" y="-1.600000" angle="90.000000" type="hetero" speed="5.200000" pos="7.800000" lane="e0_0" slope="0.000000"/>
    </timestep>
    <timestep time="3.000">
        <vehicle id="veh0" x="15.600000" y="-1.600000" angle="90.000000" type="hetero" speed="7.800000" pos="15.600000" lane="e0_0" slope="0.000000"/>
    </timestep>
    <timestep time="4.000">
        <vehicle id="veh0" x="26.000000" y="-1.600000" angle="90.000000" type="hetero" speed="10.400000" pos="26.000000" lane="e0_0" slope="0.000000"/>
    </timestep>
    <timestep time="5.000">
        <vehicle id="veh0" x="39.000000" y="-1.600000" angle="90.000000" type="hetero" speed="13.000000" pos="39.000000" lane="e0_0" slope="0.000000"/>
    </timestep>
    <timestep time="6.000">
        <vehicle id="veh0" x="52.171887" y="-1.600000" angle="90.000000" type="hetero" speed="13.171887" pos="52.171887" lane="e0_0" slope="0.000000"/>
    </timestep>
    <timestep time="7.000">
        <vehicle id="veh0" x="65.343774" y="-1.600000" angle="90.000000" type="hetero" speed="13.171887" pos="65.343774" lane="e0_0" slope="0.000000"/>
    </timestep>
    <timestep time="8.000">
        <vehicle id="veh0" x="78.515661" y="-1.600000" angle="90.000000" type="hetero" speed="13.171887" pos="78.515661" lane="e0_0" slope="0.000000"/>
    </timestep>
    <timestep time="9.000">
        <vehicle id="veh0" x="91.687548" y="-1.600000" angle="90.000000" type="hetero" speed="13.171887" pos="91.687548" lane="e0_0" slope="0.000000"/>
    </timestep>
    <timestep time="10.000">
        <vehicle id="veh0" x="104.859435" y="-1.600000" angle="90.000000" type="hetero" speed="13.171887" pos="104.859435" lane="e0_0" slope="0.000000"/>
    </timestep>
    <timestep time="11.000">
        <vehicle id="veh0" x="118.031322" y="-1.600000" angle="90.000000" type="hetero" speed="13.171887" pos="118.031322" lane="e0_0" slope="0.000000"/>
    </timestep>
    <timestep time="12.000">
        <vehicle id="veh0" x="131.203209" y="-1.600000" angle="90.000000" type="hetero" speed="13.171887" pos="131.203209" lane="e0_0" slope="0.000000"/>
    </timestep>
    <timestep time="13.000">
        <vehicle id="veh0" x="144.375096" y="-1.600000" angle="90.000000" type="hetero" speed="13.171887" pos="144.375096" lane="e0_0" slope="0.000000"/>
    </timestep>
    <timestep time="14.000">
        <vehicle id="veh0" x="157.546983" y="-1.600000" angle="90.000000" type="hetero" speed="13.171887" pos="157.546983" lane="e0_0" slope="0.000000"/>
    </timestep>
    <timestep time="15.000">
        <vehicle id="veh0" x="170.718870" y="-1.600000" angle="90.000000" type="hetero" speed="13.171887" pos="170.718870" lane="e0_0" slope="0.000000"/>
    </timestep>
    <timestep time="16.000">
        <vehicle id="veh0" x="183.890757" y="-1.600000" angle="90.000000" type="hetero" speed="13.171887" pos="183.890757" lane="e0_0" slope="0.000000"/>
    </timestep>
    <timestep time="17.000">
        <vehicle id="veh0" x="197.062644" y="-1.600000" angle="90.000000" type="hetero" speed="13.171887" pos="197.062644" lane="e0_0" slope="0.000000"/>
    </timestep>
    <timestep time="18.000">
        <vehicle id="veh0" x="210.234531" y="-1.600000" angle="90.000000" type="hetero" speed="13.171887" pos="210.234531" lane="e0_0" slope="0.000000"/>
    </timestep>
    <timestep time="19.000">
        <vehicle id="veh0" x="223.406418" y="-1.600000" angle="90.000000" type="hetero" speed="13.171887" pos="223.406418" lane="e0_0" slope="0.000000"/>
    </timestep>
    <timestep time="20.000">
        <vehicle id="veh0" x="236.578305" y="-1.600000" angle="90.000000" type="hetero" speed="13.171887" pos="236.578305" lane="e0_0" slope="0.000000"/>
    </timestep>
    <timestep time="21.000">
        <vehicle id="veh0" x="249.750192" y="-1.600000" angle="90.000000" type="hetero" speed="13.171887" pos="249.750192" lane="e0_0" slope="0.000000"/>
    </timestep>
    <timestep time="22.000">
        <vehicle id="veh0" x="262.922079" y="-1.600000" angle="90.000000" type="hetero" speed="13.171887" pos="262.922079" lane="e0_0" slope="0.000000"/>
    </timestep>
    <timestep time="23.000">
        <vehicle id="veh0" x="276.093966" y="-1.600000" angle="90.000000" type="hetero" speed="13.171887" pos="276.093966" lane="e0_0" slope="0.000000"/>
    </timestep>
    <timestep time="24.000">
        <vehicle id="veh0" x="289.265853" y="-1.600000" angle="90.000000" type="hetero" speed="13.171887" pos="289.265853" lane="e0_0" slope="0.000000"/>
    </timestep>
    <timestep time="25.000">
        <vehicle id="veh0" x="302.437740" y="-1.600000" angle="90.000000" type="hetero" speed="13.171887" pos="302.437740" lane="e0_0" slope="0.000000"/>
    </timestep>
    <timestep time="26.000">
        <vehicle id="veh0" x="315.609627" y="-1.600000" angle="90.000000" type="hetero" speed="13.171887" pos="315.609627" lane="e0_0" slope="0.000000"/>
    </timestep>
    <timestep time="27.000">
        <vehicle id="veh0" x="328.781514" y="-1.600000" angle="90.000000" type="hetero" speed="13.171887" pos="328.781514" lane="e0_0" slope="0.000000"/>
    </timestep>
    <timestep time="28.000">
        <vehicle id="veh0" x="341.953401" y="-1.600000" angle="90.000000" type="hetero" speed="13.171887" pos="341.953401" lane="e0_0" slope="0.000000"/>
    </timestep>
    <timestep time="29.000">
        <vehicle id="veh0" x="355.125288" y="-1.600000" angle="90.000000" type="hetero" speed="13.171887" pos="355.125288" lane="e0_0" slope="0.000000"/>
    </timestep>
    <timestep time="30.000">
        <vehicle id="veh0" x="368.297175" y="-1.600000" angle="90.000000" type="hetero" speed="13.171887" pos="368.297175" lane="e0_0" slope="0.000000"/>
    </timestep>
    <timestep time="31.000">
        <vehicle id="veh0" x="381.469062" y="-1.600000" angle="90.000000" type="hetero" speed="13.171887" pos="381.469062" lane="e0_0" slope="0.000000"/>
    </timestep>
    <timestep time="32.000">
        <vehicle id="veh0" x="394.640949" y="-1.600000" angle="90.000000" type="hetero" speed="13.171887" pos="394.640949" lane="e0_0" slope="0.000000"/>
    </timestep>
    <timestep time="33.000">
        <vehicle id="veh0" x="407.812836" y="-1.600000" angle="90.000000" type="hetero" speed="13.171887" pos="407.812836" lane="e0_0" slope="0.000000"/>
    </timestep>
    <timestep time="34.000">
        <vehicle id="veh0" x="420.984723" y="-1.600000" angle="90.000000" type="hetero" speed="13.171887" pos="420.984723" lane="e0_0" slope="0.000000"/>
    </timestep>
    <timestep time="35.000">
        <vehicle id="veh0" x="434.156610" y="-1.600000" angle="90.000000" type="hetero" speed="13.171887" pos="434.156610" lane="e0_0" slope="0.000000"/>
    </timestep>
    <timestep time="36.000">
        <vehicle id="veh0" x="447.328497" y="-1.600000" angle="90.000000" type="hetero" speed="13.171887" pos="447.328497" lane="e0_0" slope="0.000000"/>
    </timestep>
    <timestep time="37.000">
        <vehicle id="veh0" x="460.500384" y="-1.600000" angle="90.000000" type="hetero" speed="13.171887" pos="460.500384" lane="e0_0" slope="0.000000"/>
    </timestep>
    <timestep time="38.000">
        <vehicle id="veh0" x="473.672271" y="-1.600000" angle="90.000000" type="hetero" speed="13.171887" pos="473.672271" lane="e0_0" slope="0.000000"/>
    </timestep>
    <timestep time="39.000">
        <vehicle id="veh0" x="486.844158" y="-1.600000" angle="90.000000" type="hetero" speed="13.171887" pos="486.844158" lane="e0_0" slope="0.000000"/>
    </timestep>
    <timestep time="40.000">
        <vehicle id="veh0" x="500.016045" y="-1.600000" angle="90.000000" type="hetero" speed="13.171887" pos="500.016045" lane="e0_0" slope="0.000000"/>
    </timestep>
    <timestep time="41.000">
        <vehicle id="veh0" x="513.187932" y="-1.600000" angle="90.000000" type="hetero" speed="13.171887" pos="513.187932" lane="e0_0" slope="0.000000"/>
    </timestep>
    <timestep time="42.000">
        <vehicle id="veh0" x="526.359819" y="-1.600000" angle="90.000000" type="hetero" speed="13.171887" pos="526.359819" lane="e0_0" slope="0.000000"/>
    </timestep>
    <timestep time="43.000">
        <vehicle id="veh0" x="539.531706" y="-1.600000" angle="90.000000" type="hetero" speed="13.171887" pos="539.531706" lane="e0_0" slope="0.000000"/>
    </timestep>
    <timestep time="44.000">
        <vehicle id="veh0" x="552.703593" y="-1.600000" angle="90.000000" type="hetero" speed="13.171887" pos="552.703593" lane="e0_0" slope="0.000000"/>
    </timestep>
    <timestep time="45.000">
        <vehicle id="veh0" x="565.875480" y="-1.600000" angle="90.000000" type="hetero" speed="13.171887" pos="565.875480" lane="e0_0" slope="0.000000"/>
    </timestep>
    <timestep time="46.000">
        <vehicle id="veh0" x="579.047367" y="-1.600000" angle="90.000000" type="hetero" speed="13.171887" pos="579.047367" lane="e0_0" slope="0.000000"/>
    </timestep>
    <timestep time="47.000">
        <vehicle id="veh0" x="592.219254" y="-1.600000" angle="90.000000" type="hetero" speed="13.171887" pos="592.219254" lane="e0_0" slope="0.000000"/>
    </timestep>
    <timestep time="48.000">
        <vehicle id="veh0" x="605.391141" y="-1.600000" angle="90.000000" type="hetero" speed="13.171887" pos="605.391141" lane="e0_0" slope="0.000000"/>
    </timestep>
    <timestep time="49.000">
        <vehicle id="veh0" x="618.563028" y="-1.600000" angle="90.000000" type="hetero" speed="13.171887" pos="618.563028" lane="e0_0" slope="0.000000"/>
    </timestep>
    <timestep time="50.000">
        <vehicle id="veh0" x="631.734915" y="-1.600000" angle="90.000000" type="hetero" speed="13.171887" pos="631.734915" lane="e0_0" slope="0.000000"/>
    </timestep>
    <timestep time="51.000">
        <vehicle id="veh0" x="644.906802" y="-1.600000" angle="90.000000" type="hetero" speed="13.171887" pos="644.906802" lane="e0_0" slope="0.000000"/>
    </timestep>
    <timestep time="52.000">
        <vehicle id="veh0" x="658.078689" y="-1.600000" angle="90.000000" type="hetero" speed="13.171887" pos="658.078689" lane="e0_0" slope="0.000000"/>
    </timestep>
    <timestep time="53.000">
        <vehicle id="veh0" x="671.250576" y="-1.600000" angle="90.000000" type="hetero" speed="13.171887" pos="671.250576" lane="e0_0" slope="0.000000"/>
    </timestep>
    <timestep time="54.000">
        <vehicle id="veh0" x="684.422463" y="-1.600000" angle="90.000000" type="hetero" speed="13.171887" pos="684.422463" lane="e0_0" slope="0.000000"/>
    </timestep>
    <timestep time="55.000">
        <vehicle id="veh0" x="697.594350" y="-1.600000" angle="90.000000" type="hetero" speed="13.171887" pos="697.594350" lane="e0_0" slope="0.000000"/>
    </timestep>
    <timestep time="56.000">
        <vehicle id="veh0" x="710.766237" y="-1.600000" angle="90.000000" type="hetero" speed="13.171887" pos="710.766237" lane="e0_0" slope="0.000000"/>
    </timestep>
    <timestep time="57.000">
        <vehicle id="veh0" x="723.938124" y="-1.600000" angle="90.000000" type="hetero" speed="13.171887" pos="723.938124" lane="e0_0" slope="0.000000"/>
    </timestep>
    <timestep time="58.000">
        <vehicle id="veh0" x="737.110011" y="-1.600000" angle="90.000000" type="hetero" speed="13.171887" pos="737.110011" lane="e0_0" slope="0.000000"/>
    </timestep>
    <timestep time="59.000">
        <vehicle id="veh0" x="750.281898" y="-1.600000" angle="90.000000" type="hetero" speed="13.171887" pos="750.281898" lane="e0_0" slope="0.000000"/>
    </timestep>
    <timestep time="60.000">
        <vehicle id="veh0" x="763.453785" y="-1.600000" angle="90.000000" type="hetero" speed="13.171887" pos="763.453785" lane="e0_0" slope="0.000000"/>
    </timestep>
    <timestep time="61.000">
        <vehicle id="veh0" x="776.625672" y="-1.600000" angle="90.000000" type="hetero" speed="13.171887" pos="776.625672" lane="e0_0" slope="0.000000"/>
    </timestep>
    <timestep time="62.000">
        <vehicle id="veh0" x="789.797559" y="-1.600000" angle="90.000000" type="hetero" speed="13.171887" pos="789.797559" lane="e0_0" slope="0.000000"/>
    </timestep>
    <timestep time="63.000">
        <vehicle id="veh0" x="802.969446" y="-1.600000" angle="90.000000" type="hetero" speed="13.171887" pos="802.969446" lane="e0_0" slope="0.000000"/>
    </timestep>
    <timestep time="64.000">
        <vehicle id="veh0" x="816.141333" y="-1.600000" angle="90.000000" type="hetero" speed="13.171887" pos="816.141333" lane="e0_0" slope="0.000000"/>
    </timestep>
    <timestep time="65.000">
        <vehicle id="veh0" x="829.313220" y="-1.600000" angle="90.000000" type="hetero" speed="13.171887" pos="829.313220" lane="e0_0" slope="0.000000"/>
    </timestep>
    <timestep time="66.000">
        <vehicle id="veh0" x="842.485107" y="-1.600000" angle="90.000000" type="hetero" speed="13.171887" pos="842.485107" lane="e0_0" slope="0.000000"/>
    </timestep>
    <timestep time="67.000">
        <vehicle id="veh0" x="855.656994" y="-1.600000" angle="90.000000" type="hetero" speed="13.171887" pos="855.656994" lane="e0_0" slope="0.000000"/>
    </timestep>
    <timestep time="68.000">
        <vehicle id="veh0" x="868.828881" y="-1.600000" angle="90.000000" type="hetero" speed="13.171887" pos="868.828881" lane="e0_0" slope="0.000000"/>
    </timestep>
    <timestep time="69.000">
        <vehicle id="veh0" x="882.000768" y="-1.600000" angle="90.000000" type="hetero" speed="13.171887" pos="882.000768" lane="e0_0" slope="0.000000"/>
    </timestep>
    <timestep time="70.000">
        <vehicle id="veh0" x="895.172655" y="-1.600000" angle="90.000000" type="hetero" speed="13.171887" pos="895.172655" lane="e0_0" slope="0.000000"/>
    </timestep>
    <timestep time="71.000">
        <vehicle id="veh0" x="908.344542" y="-1.600000" angle="90.000000" type="hetero" speed="13.171887" pos="908.344542" lane="e0_0" slope="0.000000"/>
    </timestep>
    <timestep time="72.000">
        <vehicle id="veh0" x="921.516429" y="-1.600000" angle="90.000000" type="hetero" speed="13.171887" pos="921.516429" lane="e0_0" slope="0.000000"/>
    </timestep>
    <timestep time="73.000">
        <vehicle id="veh0" x="934.688316" y="-1.600000" angle="90.000000" type="hetero" speed="13.171887" pos="934.688316" lane="e0_0" slope="0.000000"/>
    </timestep>
    <timestep time="74.000">
        <vehicle id="veh0" x="947.860203" y="-1.600000" angle="90.000000" type="hetero" speed="13.171887" pos="947.860203" lane="e0_0" slope="0.000000"/>
    </timestep>
    <timestep time="75.000">
        <vehicle id="veh0" x="961.032090" y="-1.600000" angle="90.000000" type="hetero" speed="13.171887" pos="961.032090" lane="e0_0" slope="0.000000"/>
    </timestep>
    <timestep time="76.000">
        <vehicle id="veh0" x="974.203977" y="-1.600000" angle="90.000000" type="hetero" speed="13.171887" pos="974.203977" lane="e0_0" slope="0.000000"/>
    </timestep>
    <timestep time="77.000">
        <vehicle id="veh0" x="987.375864" y="-1.600000" angle="90.000000" type="hetero" speed="13.171887" pos="987.375864" lane="e0_0" slope="0.000000"/>
    </timestep>
    <timestep time="78.000">
        <vehicle id="veh0" x="1000.547751" y="-1.600000" angle="90.000000" type="hetero" speed="13.171887" pos="1000.547751" lane="e0_0" slope="0.000000"/>
    </timestep>
    <timestep time="79.000">
        <vehicle id="veh0" x="1013.719638" y="-1.600000" angle="90.000000" type="hetero" speed="13.171887" pos="1013.719638" lane="e0_0" slope="0.000000"/>
    </timestep>
</fcd-export>
