<?xml version="1.0" encoding="UTF-8"?>

<!-- generated on 2026-07-08 04:00:14 by Eclipse SUMO sumo Version 1.20.0
<configuration xmlns:xsi="http://www.w3.org/2001/XMLSchema-instance" xsi:noNamespaceSchemaLocation="http://sumo.dlr.de/xsd/sumoConfiguration.xsd">

    <input>
        <net-file value="net.net.xml"/>
        <route-files value="rou.rou.xml"/>
    </input>

    <output>
        <precision value="6"/>
        <fcd-output value="golden.ensemble/seed21.fcd.xml"/>
    </output>

    <time>
        <begin value="0"/>
        <end value="80"/>
        <step-length value="1"/>
    </time>

    <processing>
        <step-method.ballistic value="false"/>
        <collision.action value="none"/>
        <time-to-teleport value="-1"/>
        <default.action-step-length value="1"/>
        <default.speeddev value="0.1"/>
    </processing>

    <report>
        <no-step-log value="true"/>
    </report>

    <random_number>
        <seed value="21"/>
    </random_number>

</configuration>
-->

<fcd-export xmlns:xsi="http://www.w3.org/2001/XMLSchema-instance" xsi:noNamespaceSchemaLocation="http://sumo.dlr.de/xsd/fcd_file.xsd">
    <timestep time="0.000">
        <vehicle id="veh0" x="0.000000" y="-1.600000" angle="90.000000" type="hetero" speed="0.000000" pos="0.000000" lane="e0_0" slope="0.000000"/>
    </timestep>
    <timestep time="1.000">
        <vehicle id="veh0" x="2.600000" y="-1.600000" angle="90.000000" type="hetero" speed="2.600000" pos="2.600000" lane="e0_0" slope="0.000000"/>
    </timestep>
    <timestep time="2.000">
        <vehicle id="veh0" x="7.800000" y="-1.600000" angle="90.000000" type="hetero" speed="5.200000" pos="7.800000" lane="e0_0" slope="0.000000"/>
    </timestep>
    <timestep time="3.000">
        <vehicle id="veh0" x="15.600000" y="-1.600000" angle="90.000000" type="hetero" speed="7.800000" pos="15.600000" lane="e0_0" slope="0.000000"/>
    </timestep>
    <timestep time="4.000">
        <vehicle id="veh0" x="26.000000" y="-1.600000" angle="90.000000" type="hetero" speed="10.400000" pos="26.000000" lane="e0_0" slope="0.000000"/>
    </timestep>
    <timestep time="5.000">
        <vehicle id="veh0" x="38.266259" y="-1.600000" angle="90.000000" type="hetero" speed="12.266259" pos="38.266259" lane="e0_0" slope="0.000000"/>
    </timestep>
    <timestep time="6.000">
        <vehicle id="veh0" x="50.532518" y="-1.600000" angle="90.000000" type="hetero" speed="12.266259" pos="50.532518" lane="e0_0" slope="0.000000"/>
    </timestep>
    <timestep time="7.000">
        <vehicle id="veh0" x="62.798777" y="-1.600000" angle="90.000000" type="hetero" speed="12.266259" pos="62.798777" lane="e0_0" slope="0.000000"/>
    </timestep>
    <timestep time="8.000">
        <vehicle id="veh0" x="75.065036" y="-1.600000" angle="90.000000" type="hetero" speed="12.266259" pos="75.065036" lane="e0_0" slope="0.000000"/>
    </timestep>
    <timestep time="9.000">
        <vehicle id="veh0" x="87.331295" y="-1.600000" angle="90.000000" type="hetero" speed="12.266259" pos="87.331295" lane="e0_0" slope="0.000000"/>
    </timestep>
    <timestep time="10.000">
        <vehicle id="veh0" x="99.597554" y="-1.600000" angle="90.000000" type="hetero" speed="12.266259" pos="99.597554" lane="e0_0" slope="0.000000"/>
    </timestep>
    <timestep time="11.000">
        <vehicle id="veh0" x="111.863813" y="-1.600000" angle="90.000000" type="hetero" speed="12.266259" pos="111.863813" lane="e0_0" slope="0.000000"/>
    </timestep>
    <timestep time="12.000">
        <vehicle id="veh0" x="124.130072" y="-1.600000" angle="90.000000" type="hetero" speed="12.266259" pos="124.130072" lane="e0_0" slope="0.000000"/>
    </timestep>
    <timestep time="13.000">
        <vehicle id="veh0" x="136.396331" y="-1.600000" angle="90.000000" type="hetero" speed="12.266259" pos="136.396331" lane="e0_0" slope="0.000000"/>
    </timestep>
    <timestep time="14.000">
        <vehicle id="veh0" x="148.662590" y="-1.600000" angle="90.000000" type="hetero" speed="12.266259" pos="148.662590" lane="e0_0" slope="0.000000"/>
    </timestep>
    <timestep time="15.000">
        <vehicle id="veh0" x="160.928849" y="-1.600000" angle="90.000000" type="hetero" speed="12.266259" pos="160.928849" lane="e0_0" slope="0.000000"/>
    </timestep>
    <timestep time="16.000">
        <vehicle id="veh0" x="173.195108" y="-1.600000" angle="90.000000" type="hetero" speed="12.266259" pos="173.195108" lane="e0_0" slope="0.000000"/>
    </timestep>
    <timestep time="17.000">
        <vehicle id="veh0" x="185.461367" y="-1.600000" angle="90.000000" type="hetero" speed="12.266259" pos="185.461367" lane="e0_0" slope="0.000000"/>
    </timestep>
    <timestep time="18.000">
        <vehicle id="veh0" x="197.727626" y="-1.600000" angle="90.000000" type="hetero" speed="12.266259" pos="197.727626" lane="e0_0" slope="0.000000"/>
    </timestep>
    <timestep time="19.000">
        <vehicle id="veh0" x="209.993885" y="-1.600000" angle="90.000000" type="hetero" speed="12.266259" pos="209.993885" lane="e0_0" slope="0.000000"/>
    </timestep>
    <timestep time="20.000">
        <vehicle id="veh0" x="222.260144" y="-1.600000" angle="90.000000" type="hetero" speed="12.266259" pos="222.260144" lane="e0_0" slope="0.000000"/>
    </timestep>
    <timestep time="21.000">
        <vehicle id="veh0" x="234.526403" y="-1.600000" angle="90.000000" type="hetero" speed="12.266259" pos="234.526403" lane="e0_0" slope="0.000000"/>
    </timestep>
    <timestep time="22.000">
        <vehicle id="veh0" x="246.792662" y="-1.600000" angle="90.000000" type="hetero" speed="12.266259" pos="246.792662" lane="e0_0" slope="0.000000"/>
    </timestep>
    <timestep time="23.000">
        <vehicle id="veh0" x="259.058921" y="-1.600000" angle="90.000000" type="hetero" speed="12.266259" pos="259.058921" lane="e0_0" slope="0.000000"/>
    </timestep>
    <timestep time="24.000">
        <vehicle id="veh0" x="271.325180" y="-1.600000" angle="90.000000" type="hetero" speed="12.266259" pos="271.325180" lane="e0_0" slope="0.000000"/>
    </timestep>
    <timestep time="25.000">
        <vehicle id="veh0" x="283.591439" y="-1.600000" angle="90.000000" type="hetero" speed="12.266259" pos="283.591439" lane="e0_0" slope="0.000000"/>
    </timestep>
    <timestep time="26.000">
        <vehicle id="veh0" x="295.857698" y="-1.600000" angle="90.000000" type="hetero" speed="12.266259" pos="295.857698" lane="e0_0" slope="0.000000"/>
    </timestep>
    <timestep time="27.000">
        <vehicle id="veh0" x="308.123957" y="-1.600000" angle="90.000000" type="hetero" speed="12.266259" pos="308.123957" lane="e0_0" slope="0.000000"/>
    </timestep>
    <timestep time="28.000">
        <vehicle id="veh0" x="320.390216" y="-1.600000" angle="90.000000" type="hetero" speed="12.266259" pos="320.390216" lane="e0_0" slope="0.000000"/>
    </timestep>
    <timestep time="29.000">
        <vehicle id="veh0" x="332.656475" y="-1.600000" angle="90.000000" type="hetero" speed="12.266259" pos="332.656475" lane="e0_0" slope="0.000000"/>
    </timestep>
    <timestep time="30.000">
        <vehicle id="veh0" x="344.922734" y="-1.600000" angle="90.000000" type="hetero" speed="12.266259" pos="344.922734" lane="e0_0" slope="0.000000"/>
    </timestep>
    <timestep time="31.000">
        <vehicle id="veh0" x="357.188993" y="-1.600000" angle="90.000000" type="hetero" speed="12.266259" pos="357.188993" lane="e0_0" slope="0.000000"/>
    </timestep>
    <timestep time="32.000">
        <vehicle id="veh0" x="369.455252" y="-1.600000" angle="90.000000" type="hetero" speed="12.266259" pos="369.455252" lane="e0_0" slope="0.000000"/>
    </timestep>
    <timestep time="33.000">
        <vehicle id="veh0" x="381.721511" y="-1.600000" angle="90.000000" type="hetero" speed="12.266259" pos="381.721511" lane="e0_0" slope="0.000000"/>
    </timestep>
    <timestep time="34.000">
        <vehicle id="veh0" x="393.987770" y="-1.600000" angle="90.000000" type="hetero" speed="12.266259" pos="393.987770" lane="e0_0" slope="0.000000"/>
    </timestep>
    <timestep time="35.000">
        <vehicle id="veh0" x="406.254029" y="-1.600000" angle="90.000000" type="hetero" speed="12.266259" pos="406.254029" lane="e0_0" slope="0.000000"/>
    </timestep>
    <timestep time="36.000">
        <vehicle id="veh0" x="418.520288" y="-1.600000" angle="90.000000" type="hetero" speed="12.266259" pos="418.520288" lane="e0_0" slope="0.000000"/>
    </timestep>
    <timestep time="37.000">
        <vehicle id="veh0" x="430.786547" y="-1.600000" angle="90.000000" type="hetero" speed="12.266259" pos="430.786547" lane="e0_0" slope="0.000000"/>
    </timestep>
    <timestep time="38.000">
        <vehicle id="veh0" x="443.052806" y="-1.600000" angle="90.000000" type="hetero" speed="12.266259" pos="443.052806" lane="e0_0" slope="0.000000"/>
    </timestep>
    <timestep time="39.000">
        <vehicle id="veh0" x="455.319065" y="-1.600000" angle="90.000000" type="hetero" speed="12.266259" pos="455.319065" lane="e0_0" slope="0.000000"/>
    </timestep>
    <timestep time="40.000">
        <vehicle id="veh0" x="467.585324" y="-1.600000" angle="90.000000" type="hetero" speed="12.266259" pos="467.585324" lane="e0_0" slope="0.000000"/>
    </timestep>
    <timestep time="41.000">
        <vehicle id="veh0" x="479.851583" y="-1.600000" angle="90.000000" type="hetero" speed="12.266259" pos="479.851583" lane="e0_0" slope="0.000000"/>
    </timestep>
    <timestep time="42.000">
        <vehicle id="veh0" x="492.117842" y="-1.600000" angle="90.000000" type="hetero" speed="12.266259" pos="492.117842" lane="e0_0" slope="0.000000"/>
    </timestep>
    <timestep time="43.000">
        <vehicle id="veh0" x="504.384101" y="-1.600000" angle="90.000000" type="hetero" speed="12.266259" pos="504.384101" lane="e0_0" slope="0.000000"/>
    </timestep>
    <timestep time="44.000">
        <vehicle id="veh0" x="516.650360" y="-1.600000" angle="90.000000" type="hetero" speed="12.266259" pos="516.650360" lane="e0_0" slope="0.000000"/>
    </timestep>
    <timestep time="45.000">
        <vehicle id="veh0" x="528.916619" y="-1.600000" angle="90.000000" type="hetero" speed="12.266259" pos="528.916619" lane="e0_0" slope="0.000000"/>
    </timestep>
    <timestep time="46.000">
        <vehicle id="veh0" x="541.182878" y="-1.600000" angle="90.000000" type="hetero" speed="12.266259" pos="541.182878" lane="e0_0" slope="0.000000"/>
    </timestep>
    <timestep time="47.000">
        <vehicle id="veh0" x="553.449137" y="-1.600000" angle="90.000000" type="hetero" speed="12.266259" pos="553.449137" lane="e0_0" slope="0.000000"/>
    </timestep>
    <timestep time="48.000">
        <vehicle id="veh0" x="565.715396" y="-1.600000" angle="90.000000" type="hetero" speed="12.266259" pos="565.715396" lane="e0_0" slope="0.000000"/>
    </timestep>
    <timestep time="49.000">
        <vehicle id="veh0" x="577.981655" y="-1.600000" angle="90.000000" type="hetero" speed="12.266259" pos="577.981655" lane="e0_0" slope="0.000000"/>
    </timestep>
    <timestep time="50.000">
        <vehicle id="veh0" x="590.247914" y="-1.600000" angle="90.000000" type="hetero" speed="12.266259" pos="590.247914" lane="e0_0" slope="0.000000"/>
    </timestep>
    <timestep time="51.000">
        <vehicle id="veh0" x="602.514173" y="-1.600000" angle="90.000000" type="hetero" speed="12.266259" pos="602.514173" lane="e0_0" slope="0.000000"/>
    </timestep>
    <timestep time="52.000">
        <vehicle id="veh0" x="614.780432" y="-1.600000" angle="90.000000" type="hetero" speed="12.266259" pos="614.780432" lane="e0_0" slope="0.000000"/>
    </timestep>
    <timestep time="53.000">
        <vehicle id="veh0" x="627.046691" y="-1.600000" angle="90.000000" type="hetero" speed="12.266259" pos="627.046691" lane="e0_0" slope="0.000000"/>
    </timestep>
    <timestep time="54.000">
        <vehicle id="veh0" x="639.312950" y="-1.600000" angle="90.000000" type="hetero" speed="12.266259" pos="639.312950" lane="e0_0" slope="0.000000"/>
    </timestep>
    <timestep time="55.000">
        <vehicle id="veh0" x="651.579209" y="-1.600000" angle="90.000000" type="hetero" speed="12.266259" pos="651.579209" lane="e0_0" slope="0.000000"/>
    </timestep>
    <timestep time="56.000">
        <vehicle id="veh0" x="663.845468" y="-1.600000" angle="90.000000" type="hetero" speed="12.266259" pos="663.845468" lane="e0_0" slope="0.000000"/>
    </timestep>
    <timestep time="57.000">
        <vehicle id="veh0" x="676.111727" y="-1.600000" angle="90.000000" type="hetero" speed="12.266259" pos="676.111727" lane="e0_0" slope="0.000000"/>
    </timestep>
    <timestep time="58.000">
        <vehicle id="veh0" x="688.377986" y="-1.600000" angle="90.000000" type="hetero" speed="12.266259" pos="688.377986" lane="e0_0" slope="0.000000"/>
    </timestep>
    <timestep time="59.000">
        <vehicle id="veh0" x="700.644245" y="-1.600000" angle="90.000000" type="hetero" speed="12.266259" pos="700.644245" lane="e0_0" slope="0.000000"/>
    </timestep>
    <timestep time="60.000">
        <vehicle id="veh0" x="712.910504" y="-1.600000" angle="90.000000" type="hetero" speed="12.266259" pos="712.910504" lane="e0_0" slope="0.000000"/>
    </timestep>
    <timestep time="61.000">
        <vehicle id="veh0" x="725.176763" y="-1.600000" angle="90.000000" type="hetero" speed="12.266259" pos="725.176763" lane="e0_0" slope="0.000000"/>
    </timestep>
    <timestep time="62.000">
        <vehicle id="veh0" x="737.443022" y="-1.600000" angle="90.000000" type="hetero" speed="12.266259" pos="737.443022" lane="e0_0" slope="0.000000"/>
    </timestep>
    <timestep time="63.000">
        <vehicle id="veh0" x="749.709281" y="-1.600000" angle="90.000000" type="hetero" speed="12.266259" pos="749.709281" lane="e0_0" slope="0.000000"/>
    </timestep>
    <timestep time="64.000">
        <vehicle id="veh0" x="761.975540" y="-1.600000" angle="90.000000" type="hetero" speed="12.266259" pos="761.975540" lane="e0_0" slope="0.000000"/>
    </timestep>
    <timestep time="65.000">
        <vehicle id="veh0" x="774.241799" y="-1.600000" angle="90.000000" type="hetero" speed="12.266259" pos="774.241799" lane="e0_0" slope="0.000000"/>
    </timestep>
    <timestep time="66.000">
        <vehicle id="veh0" x="786.508058" y="-1.600000" angle="90.000000" type="hetero" speed="12.266259" pos="786.508058" lane="e0_0" slope="0.000000"/>
    </timestep>
    <timestep time="67.000">
        <vehicle id="veh0" x="798.774317" y="-1.600000" angle="90.000000" type="hetero" speed="12.266259" pos="798.774317" lane="e0_0" slope="0.000000"/>
    </timestep>
    <timestep time="68.000">
        <vehicle id="veh0" x="811.040576" y="-1.600000" angle="90.000000" type="hetero" speed="12.266259" pos="811.040576" lane="e0_0" slope="0.000000"/>
    </timestep>
    <timestep time="69.000">
        <vehicle id="veh0" x="823.306835" y="-1.600000" angle="90.000000" type="hetero" speed="12.266259" pos="823.306835" lane="e0_0" slope="0.000000"/>
    </timestep>
    <timestep time="70.000">
        <vehicle id="veh0" x="835.573094" y="-1.600000" angle="90.000000" type="hetero" speed="12.266259" pos="835.573094" lane="e0_0" slope="0.000000"/>
    </timestep>
    <timestep time="71.000">
        <vehicle id="veh0" x="847.839353" y="-1.600000" angle="90.000000" type="hetero" speed="12.266259" pos="847.839353" lane="e0_0" slope="0.000000"/>
    </timestep>
    <timestep time="72.000">
        <vehicle id="veh0" x="860.105612" y="-1.600000" angle="90.000000" type="hetero" speed="12.266259" pos="860.105612" lane="e0_0" slope="0.000000"/>
    </timestep>
    <timestep time="73.000">
        <vehicle id="veh0" x="872.371871" y="-1.600000" angle="90.000000" type="hetero" speed="12.266259" pos="872.371871" lane="e0_0" slope="0.000000"/>
    </timestep>
    <timestep time="74.000">
        <vehicle id="veh0" x="884.638130" y="-1.600000" angle="90.000000" type="hetero" speed="12.266259" pos="884.638130" lane="e0_0" slope="0.000000"/>
    </timestep>
    <timestep time="75.000">
        <vehicle id="veh0" x="896.904389" y="-1.600000" angle="90.000000" type="hetero" speed="12.266259" pos="896.904389" lane="e0_0" slope="0.000000"/>
    </timestep>
    <timestep time="76.000">
        <vehicle id="veh0" x="909.170648" y="-1.600000" angle="90.000000" type="hetero" speed="12.266259" pos="909.170648" lane="e0_0" slope="0.000000"/>
    </timestep>
    <timestep time="77.000">
        <vehicle id="veh0" x="921.436907" y="-1.600000" angle="90.000000" type="hetero" speed="12.266259" pos="921.436907" lane="e0_0" slope="0.000000"/>
    </timestep>
    <timestep time="78.000">
        <vehicle id="veh0" x="933.703166" y="-1.600000" angle="90.000000" type="hetero" speed="12.266259" pos="933.703166" lane="e0_0" slope="0.000000"/>
    </timestep>
    <timestep time="79.000">
        <vehicle id="veh0" x="945.969425" y="-1.600000" angle="90.000000" type="hetero" speed="12.266259" pos="945.969425" lane="e0_0" slope="0.000000"/>
    </timestep>
</fcd-export>
