<?xml version="1.0" encoding="UTF-8"?>

<!-- generated on 2026-07-08 04:00:14 by Eclipse SUMO sumo Version 1.20.0
<configuration xmlns:xsi="http://www.w3.org/2001/XMLSchema-instance" xsi:noNamespaceSchemaLocation="http://sumo.dlr.de/xsd/sumoConfiguration.xsd">

    <input>
        <net-file value="net.net.xml"/>
        <route-files value="rou.rou.xml"/>
    </input>

    <output>
        <precision value="6"/>
        <fcd-output value="golden.ensemble/seed15.fcd.xml"/>
    </output>

    <time>
        <begin value="0"/>
        <end value="80"/>
        <step-length value="1"/>
    </time>

    <processing>
        <step-method.ballistic value="false"/>
        <collision.action value="none"/>
        <time-to-teleport value="-1"/>
        <default.action-step-length value="1"/>
        <default.speeddev value="0.1"/>
    </processing>

    <report>
        <no-step-log value="true"/>
    </report>

    <random_number>
        <seed value="15"/>
    </random_number>

</configuration>
-->

<fcd-export xmlns:xsi="http://www.w3.org/2001/XMLSchema-instance" xsi:noNamespaceSchemaLocation="http://sumo.dlr.de/xsd/fcd_file.xsd">
    <timestep time="0.000">
        <vehicle id="veh0" x="0.000000" y="-1.600000" angle="90.000000" type="hetero" speed="0.000000" pos="0.000000" lane="e0_0" slope="0.000000"/>
    </timestep>
    <timestep time="1.000">
        <vehicle id="veh0" x="2.600000" y="-1.600000" angle="90.000000" type="hetero" speed="2.600000" pos="2.600000" lane="e0_0" slope="0.000000"/>
    </timestep>
    <timestep time="2.000">
        <vehicle id="veh0" x="7.800000" y="-1.600000" angle="90.000000" type="hetero" speed="5.200000" pos="7.800000" lane="e0_0" slope="0.000000"/>
    </timestep>
    <timestep time="3.000">
        <vehicle id="veh0" x="15.600000" y="-1.600000" angle="90.000000" type="hetero" speed="7.800000" pos="15.600000" lane="e0_0" slope="0.000000"/>
    </timestep>
    <timestep time="4.000">
        <vehicle id="veh0" x="26.000000" y="-1.600000" angle="90.000000" type="hetero" speed="10.400000" pos="26.000000" lane="e0_0" slope="0.000000"/>
    </timestep>
    <timestep time="5.000">
        <vehicle id="veh0" x="39.000000" y="-1.600000" angle="90.000000" type="hetero" speed="13.000000" pos="39.000000" lane="e0_0" slope="0.000000"/>
    </timestep>
    <timestep time="6.000">
        <vehicle id="veh0" x="53.412264" y="-1.600000" angle="90.000000" type="hetero" speed="14.412264" pos="53.412264" lane="e0_0" slope="0.000000"/>
    </timestep>
    <timestep time="7.000">
        <vehicle id="veh0" x="67.824528" y="-1.600000" angle="90.000000" type="hetero" speed="14.412264" pos="67.824528" lane="e0_0" slope="0.000000"/>
    </timestep>
    <timestep time="8.000">
        <vehicle id="veh0" x="82.236792" y="-1.600000" angle="90.000000" type="hetero" speed="14.412264" pos="82.236792" lane="e0_0" slope="0.000000"/>
    </timestep>
    <timestep time="9.000">
        <vehicle id="veh0" x="96.649056" y="-1.600000" angle="90.000000" type="hetero" speed="14.412264" pos="96.649056" lane="e0_0" slope="0.000000"/>
    </timestep>
    <timestep time="10.000">
        <vehicle id="veh0" x="111.061320" y="-1.600000" angle="90.000000" type="hetero" speed="14.412264" pos="111.061320" lane="e0_0" slope="0.000000"/>
    </timestep>
    <timestep time="11.000">
        <vehicle id="veh0" x="125.473584" y="-1.600000" angle="90.000000" type="hetero" speed="14.412264" pos="125.473584" lane="e0_0" slope="0.000000"/>
    </timestep>
    <timestep time="12.000">
        <vehicle id="veh0" x="139.885848" y="-1.600000" angle="90.000000" type="hetero" speed="14.412264" pos="139.885848" lane="e0_0" slope="0.000000"/>
    </timestep>
    <timestep time="13.000">
        <vehicle id="veh0" x="154.298112" y="-1.600000" angle="90.000000" type="hetero" speed="14.412264" pos="154.298112" lane="e0_0" slope="0.000000"/>
    </timestep>
    <timestep time="14.000">
        <vehicle id="veh0" x="168.710376" y="-1.600000" angle="90.000000" type="hetero" speed="14.412264" pos="168.710376" lane="e0_0" slope="0.000000"/>
    </timestep>
    <timestep time="15.000">
        <vehicle id="veh0" x="183.122640" y="-1.600000" angle="90.000000" type="hetero" speed="14.412264" pos="183.122640" lane="e0_0" slope="0.000000"/>
    </timestep>
    <timestep time="16.000">
        <vehicle id="veh0" x="197.534904" y="-1.600000" angle="90.000000" type="hetero" speed="14.412264" pos="197.534904" lane="e0_0" slope="0.000000"/>
    </timestep>
    <timestep time="17.000">
        <vehicle id="veh0" x="211.947168" y="-1.600000" angle="90.000000" type="hetero" speed="14.412264" pos="211.947168" lane="e0_0" slope="0.000000"/>
    </timestep>
    <timestep time="18.000">
        <vehicle id="veh0" x="226.359432" y="-1.600000" angle="90.000000" type="hetero" speed="14.412264" pos="226.359432" lane="e0_0" slope="0.000000"/>
    </timestep>
    <timestep time="19.000">
        <vehicle id="veh0" x="240.771696" y="-1.600000" angle="90.000000" type="hetero" speed="14.412264" pos="240.771696" lane="e0_0" slope="0.000000"/>
    </timestep>
    <timestep time="20.000">
        <vehicle id="veh0" x="255.183960" y="-1.600000" angle="90.000000" type="hetero" speed="14.412264" pos="255.183960" lane="e0_0" slope="0.000000"/>
    </timestep>
    <timestep time="21.000">
        <vehicle id="veh0" x="269.596224" y="-1.600000" angle="90.000000" type="hetero" speed="14.412264" pos="269.596224" lane="e0_0" slope="0.000000"/>
    </timestep>
    <timestep time="22.000">
        <vehicle id="veh0" x="284.008488" y="-1.600000" angle="90.000000" type="hetero" speed="14.412264" pos="284.008488" lane="e0_0" slope="0.000000"/>
    </timestep>
    <timestep time="23.000">
        <vehicle id="veh0" x="298.420752" y="-1.600000" angle="90.000000" type="hetero" speed="14.412264" pos="298.420752" lane="e0_0" slope="0.000000"/>
    </timestep>
    <timestep time="24.000">
        <vehicle id="veh0" x="312.833016" y="-1.600000" angle="90.000000" type="hetero" speed="14.412264" pos="312.833016" lane="e0_0" slope="0.000000"/>
    </timestep>
    <timestep time="25.000">
        <vehicle id="veh0" x="327.245280" y="-1.600000" angle="90.000000" type="hetero" speed="14.412264" pos="327.245280" lane="e0_0" slope="0.000000"/>
    </timestep>
    <timestep time="26.000">
        <vehicle id="veh0" x="341.657544" y="-1.600000" angle="90.000000" type="hetero" speed="14.412264" pos="341.657544" lane="e0_0" slope="0.000000"/>
    </timestep>
    <timestep time="27.000">
        <vehicle id="veh0" x="356.069808" y="-1.600000" angle="90.000000" type="hetero" speed="14.412264" pos="356.069808" lane="e0_0" slope="0.000000"/>
    </timestep>
    <timestep time="28.000">
        <vehicle id="veh0" x="370.482072" y="-1.600000" angle="90.000000" type="hetero" speed="14.412264" pos="370.482072" lane="e0_0" slope="0.000000"/>
    </timestep>
    <timestep time="29.000">
        <vehicle id="veh0" x="384.894336" y="-1.600000" angle="90.000000" type="hetero" speed="14.412264" pos="384.894336" lane="e0_0" slope="0.000000"/>
    </timestep>
    <timestep time="30.000">
        <vehicle id="veh0" x="399.306600" y="-1.600000" angle="90.000000" type="hetero" speed="14.412264" pos="399.306600" lane="e0_0" slope="0.000000"/>
    </timestep>
    <timestep time="31.000">
        <vehicle id="veh0" x="413.718864" y="-1.600000" angle="90.000000" type="hetero" speed="14.412264" pos="413.718864" lane="e0_0" slope="0.000000"/>
    </timestep>
    <timestep time="32.000">
        <vehicle id="veh0" x="428.131128" y="-1.600000" angle="90.000000" type="hetero" speed="14.412264" pos="428.131128" lane="e0_0" slope="0.000000"/>
    </timestep>
    <timestep time="33.000">
        <vehicle id="veh0" x="442.543392" y="-1.600000" angle="90.000000" type="hetero" speed="14.412264" pos="442.543392" lane="e0_0" slope="0.000000"/>
    </timestep>
    <timestep time="34.000">
        <vehicle id="veh0" x="456.955656" y="-1.600000" angle="90.000000" type="hetero" speed="14.412264" pos="456.955656" lane="e0_0" slope="0.000000"/>
    </timestep>
    <timestep time="35.000">
        <vehicle id="veh0" x="471.367920" y="-1.600000" angle="90.000000" type="hetero" speed="14.412264" pos="471.367920" lane="e0_0" slope="0.000000"/>
    </timestep>
    <timestep time="36.000">
        <vehicle id="veh0" x="485.780184" y="-1.600000" angle="90.000000" type="hetero" speed="14.412264" pos="485.780184" lane="e0_0" slope="0.000000"/>
    </timestep>
    <timestep time="37.000">
        <vehicle id="veh0" x="500.192448" y="-1.600000" angle="90.000000" type="hetero" speed="14.412264" pos="500.192448" lane="e0_0" slope="0.000000"/>
    </timestep>
    <timestep time="38.000">
        <vehicle id="veh0" x="514.604712" y="-1.600000" angle="90.000000" type="hetero" speed="14.412264" pos="514.604712" lane="e0_0" slope="0.000000"/>
    </timestep>
    <timestep time="39.000">
        <vehicle id="veh0" x="529.016976" y="-1.600000" angle="90.000000" type="hetero" speed="14.412264" pos="529.016976" lane="e0_0" slope="0.000000"/>
    </timestep>
    <timestep time="40.000">
        <vehicle id="veh0" x="543.429240" y="-1.600000" angle="90.000000" type="hetero" speed="14.412264" pos="543.429240" lane="e0_0" slope="0.000000"/>
    </timestep>
    <timestep time="41.000">
        <vehicle id="veh0" x="557.841504" y="-1.600000" angle="90.000000" type="hetero" speed="14.412264" pos="557.841504" lane="e0_0" slope="0.000000"/>
    </timestep>
    <timestep time="42.000">
        <vehicle id="veh0" x="572.253768" y="-1.600000" angle="90.000000" type="hetero" speed="14.412264" pos="572.253768" lane="e0_0" slope="0.000000"/>
    </timestep>
    <timestep time="43.000">
        <vehicle id="veh0" x="586.666032" y="-1.600000" angle="90.000000" type="hetero" speed="14.412264" pos="586.666032" lane="e0_0" slope="0.000000"/>
    </timestep>
    <timestep time="44.000">
        <vehicle id="veh0" x="601.078296" y="-1.600000" angle="90.000000" type="hetero" speed="14.412264" pos="601.078296" lane="e0_0" slope="0.000000"/>
    </timestep>
    <timestep time="45.000">
        <vehicle id="veh0" x="615.490560" y="-1.600000" angle="90.000000" type="hetero" speed="14.412264" pos="615.490560" lane="e0_0" slope="0.000000"/>
    </timestep>
    <timestep time="46.000">
        <vehicle id="veh0" x="629.902824" y="-1.600000" angle="90.000000" type="hetero" speed="14.412264" pos="629.902824" lane="e0_0" slope="0.000000"/>
    </timestep>
    <timestep time="47.000">
        <vehicle id="veh0" x="644.315088" y="-1.600000" angle="90.000000" type="hetero" speed="14.412264" pos="644.315088" lane="e0_0" slope="0.000000"/>
    </timestep>
    <timestep time="48.000">
        <vehicle id="veh0" x="658.727352" y="-1.600000" angle="90.000000" type="hetero" speed="14.412264" pos="658.727352" lane="e0_0" slope="0.000000"/>
    </timestep>
    <timestep time="49.000">
        <vehicle id="veh0" x="673.139616" y="-1.600000" angle="90.000000" type="hetero" speed="14.412264" pos="673.139616" lane="e0_0" slope="0.000000"/>
    </timestep>
    <timestep time="50.000">
        <vehicle id="veh0" x="687.551880" y="-1.600000" angle="90.000000" type="hetero" speed="14.412264" pos="687.551880" lane="e0_0" slope="0.000000"/>
    </timestep>
    <timestep time="51.000">
        <vehicle id="veh0" x="701.964144" y="-1.600000" angle="90.000000" type="hetero" speed="14.412264" pos="701.964144" lane="e0_0" slope="0.000000"/>
    </timestep>
    <timestep time="52.000">
        <vehicle id="veh0" x="716.376408" y="-1.600000" angle="90.000000" type="hetero" speed="14.412264" pos="716.376408" lane="e0_0" slope="0.000000"/>
    </timestep>
    <timestep time="53.000">
        <vehicle id="veh0" x="730.788672" y="-1.600000" angle="90.000000" type="hetero" speed="14.412264" pos="730.788672" lane="e0_0" slope="0.000000"/>
    </timestep>
    <timestep time="54.000">
        <vehicle id="veh0" x="745.200936" y="-1.600000" angle="90.000000" type="hetero" speed="14.412264" pos="745.200936" lane="e0_0" slope="0.000000"/>
    </timestep>
    <timestep time="55.000">
        <vehicle id="veh0" x="759.613200" y="-1.600000" angle="90.000000" type="hetero" speed="14.412264" pos="759.613200" lane="e0_0" slope="0.000000"/>
    </timestep>
    <timestep time="56.000">
        <vehicle id="veh0" x="774.025464" y="-1.600000" angle="90.000000" type="hetero" speed="14.412264" pos="774.025464" lane="e0_0" slope="0.000000"/>
    </timestep>
    <timestep time="57.000">
        <vehicle id="veh0" x="788.437728" y="-1.600000" angle="90.000000" type="hetero" speed="14.412264" pos="788.437728" lane="e0_0" slope="0.000000"/>
    </timestep>
    <timestep time="58.000">
        <vehicle id="veh0" x="802.849992" y="-1.600000" angle="90.000000" type="hetero" speed="14.412264" pos="802.849992" lane="e0_0" slope="0.000000"/>
    </timestep>
    <timestep time="59.000">
        <vehicle id="veh0" x="817.262256" y="-1.600000" angle="90.000000" type="hetero" speed="14.412264" pos="817.262256" lane="e0_0" slope="0.000000"/>
    </timestep>
    <timestep time="60.000">
        <vehicle id="veh0" x="831.674520" y="-1.600000" angle="90.000000" type="hetero" speed="14.412264" pos="831.674520" lane="e0_0" slope="0.000000"/>
    </timestep>
    <timestep time="61.000">
        <vehicle id="veh0" x="846.086784" y="-1.600000" angle="90.000000" type="hetero" speed="14.412264" pos="846.086784" lane="e0_0" slope="0.000000"/>
    </timestep>
    <timestep time="62.000">
        <vehicle id="veh0" x="860.499048" y="-1.600000" angle="90.000000" type="hetero" speed="14.412264" pos="860.499048" lane="e0_0" slope="0.000000"/>
    </timestep>
    <timestep time="63.000">
        <vehicle id="veh0" x="874.911312" y="-1.600000" angle="90.000000" type="hetero" speed="14.412264" pos="874.911312" lane="e0_0" slope="0.000000"/>
    </timestep>
    <timestep time="64.000">
        <vehicle id="veh0" x="889.323576" y="-1.600000" angle="90.000000" type="hetero" speed="14.412264" pos="889.323576" lane="e0_0" slope="0.000000"/>
    </timestep>
    <timestep time="65.000">
        <vehicle id="veh0" x="903.735840" y="-1.600000" angle="90.000000" type="hetero" speed="14.412264" pos="903.735840" lane="e0_0" slope="0.000000"/>
    </timestep>
    <timestep time="66.000">
        <vehicle id="veh0" x="918.148104" y="-1.600000" angle="90.000000" type="hetero" speed="14.412264" pos="918.148104" lane="e0_0" slope="0.000000"/>
    </timestep>
    <timestep time="67.000">
        <vehicle id="veh0" x="932.560368" y="-1.600000" angle="90.000000" type="hetero" speed="14.412264" pos="932.560368" lane="e0_0" slope="0.000000"/>
    </timestep>
    <timestep time="68.000">
        <vehicle id="veh0" x="946.972632" y="-1.600000" angle="90.000000" type="hetero" speed="14.412264" pos="946.972632" lane="e0_0" slope="0.000000"/>
    </timestep>
    <timestep time="69.000">
        <vehicle id="veh0" x="961.384896" y="-1.600000" angle="90.000000" type="hetero" speed="14.412264" pos="961.384896" lane="e0_0" slope="0.000000"/>
    </timestep>
    <timestep time="70.000">
        <vehicle id="veh0" x="975.797160" y="-1.600000" angle="90.000000" type="hetero" speed="14.412264" pos="975.797160" lane="e0_0" slope="0.000000"/>
    </timestep>
    <timestep time="71.000">
        <vehicle id="veh0" x="990.209424" y="-1.600000" angle="90.000000" type="hetero" speed="14.412264" pos="990.209424" lane="e0_0" slope="0.000000"/>
    </timestep>
    <timestep time="72.000">
        <vehicle id="veh0" x="1004.621688" y="-1.600000" angle="90.000000" type="hetero" speed="14.412264" pos="1004.621688" lane="e0_0" slope="0.000000"/>
    </timestep>
    <timestep time="73.000">
        <vehicle id="veh0" x="1019.033952" y="-1.600000" angle="90.000000" type="hetero" speed="14.412264" pos="1019.033952" lane="e0_0" slope="0.000000"/>
    </timestep>
    <timestep time="74.000">
        <vehicle id="veh0" x="1033.446216" y="-1.600000" angle="90.000000" type="hetero" speed="14.412264" pos="1033.446216" lane="e0_0" slope="0.000000"/>
    </timestep>
    <timestep time="75.000">
        <vehicle id="veh0" x="1047.858480" y="-1.600000" angle="90.000000" type="hetero" speed="14.412264" pos="1047.858480" lane="e0_0" slope="0.000000"/>
    </timestep>
    <timestep time="76.000">
        <vehicle id="veh0" x="1062.270744" y="-1.600000" angle="90.000000" type="hetero" speed="14.412264" pos="1062.270744" lane="e0_0" slope="0.000000"/>
    </timestep>
    <timestep time="77.000">
        <vehicle id="veh0" x="1076.683008" y="-1.600000" angle="90.000000" type="hetero" speed="14.412264" pos="1076.683008" lane="e0_0" slope="0.000000"/>
    </timestep>
    <timestep time="78.000">
        <vehicle id="veh0" x="1091.095272" y="-1.600000" angle="90.000000" type="hetero" speed="14.412264" pos="1091.095272" lane="e0_0" slope="0.000000"/>
    </timestep>
    <timestep time="79.000">
        <vehicle id="veh0" x="1105.507536" y="-1.600000" angle="90.000000" type="hetero" speed="14.412264" pos="1105.507536" lane="e0_0" slope="0.000000"/>
    </timestep>
</fcd-export>
