<?xml version="1.0" encoding="UTF-8"?>

<!-- generated on 2026-07-08 04:00:13 by Eclipse SUMO sumo Version 1.20.0
<configuration xmlns:xsi="http://www.w3.org/2001/XMLSchema-instance" xsi:noNamespaceSchemaLocation="http://sumo.dlr.de/xsd/sumoConfiguration.xsd">

    <input>
        <net-file value="net.net.xml"/>
        <route-files value="rou.rou.xml"/>
    </input>

    <output>
        <precision value="6"/>
        <fcd-output value="golden.ensemble/seed09.fcd.xml"/>
    </output>

    <time>
        <begin value="0"/>
        <end value="80"/>
        <step-length value="1"/>
    </time>

    <processing>
        <step-method.ballistic value="false"/>
        <collision.action value="none"/>
        <time-to-teleport value="-1"/>
        <default.action-step-length value="1"/>
        <default.speeddev value="0.1"/>
    </processing>

    <report>
        <no-step-log value="true"/>
    </report>

    <random_number>
        <seed value="9"/>
    </random_number>

</configuration>
-->

<fcd-export xmlns:xsi="http://www.w3.org/2001/XMLSchema-instance" xsi:noNamespaceSchemaLocation="http://sumo.dlr.de/xsd/fcd_file.xsd">
    <timestep time="0.000">
        <vehicle id="veh0" x="0.000000" y="-1.600000" angle="90.000000" type="hetero" speed="0.000000" pos="0.000000" lane="e0_0" slope="0.000000"/>
    </timestep>
    <timestep time="1.000">
        <vehicle id="veh0" x="2.600000" y="-1.600000" angle="90.000000" type="hetero" speed="2.600000" pos="2.600000" lane="e0_0" slope="0.000000"/>
    </timestep>
    <timestep time="2.000">
        <vehicle id="veh0" x="7.800000" y="-1.600000" angle="90.000000" type="hetero" speed="5.200000" pos="7.800000" lane="e0_0" slope="0.000000"/>
    </timestep>
    <timestep time="3.000">
        <vehicle id="veh0" x="15.600000" y="-1.600000" angle="90.000000" type="hetero" speed="7.800000" pos="15.600000" lane="e0_0" slope="0.000000"/>
    </timestep>
    <timestep time="4.000">
        <vehicle id="veh0" x="26.000000" y="-1.600000" angle="90.000000" type="hetero" speed="10.400000" pos="26.000000" lane="e0_0" slope="0.000000"/>
    </timestep>
    <timestep time="5.000">
        <vehicle id="veh0" x="39.000000" y="-1.600000" angle="90.000000" type="hetero" speed="13.000000" pos="39.000000" lane="e0_0" slope="0.000000"/>
    </timestep>
    <timestep time="6.000">
        <vehicle id="veh0" x="54.600000" y="-1.600000" angle="90.000000" type="hetero" speed="15.600000" pos="54.600000" lane="e0_0" slope="0.000000"/>
    </timestep>
    <timestep time="7.000">
        <vehicle id="veh0" x="72.800000" y="-1.600000" angle="90.000000" type="hetero" speed="18.200000" pos="72.800000" lane="e0_0" slope="0.000000"/>
    </timestep>
    <timestep time="8.000">
        <vehicle id="veh0" x="92.594639" y="-1.600000" angle="90.000000" type="hetero" speed="19.794639" pos="92.594639" lane="e0_0" slope="0.000000"/>
    </timestep>
    <timestep time="9.000">
        <vehicle id="veh0" x="112.389278" y="-1.600000" angle="90.000000" type="hetero" speed="19.794639" pos="112.389278" lane="e0_0" slope="0.000000"/>
    </timestep>
    <timestep time="10.000">
        <vehicle id="veh0" x="132.183917" y="-1.600000" angle="90.000000" type="hetero" speed="19.794639" pos="132.183917" lane="e0_0" slope="0.000000"/>
    </timestep>
    <timestep time="11.000">
        <vehicle id="veh0" x="151.978556" y="-1.600000" angle="90.000000" type="hetero" speed="19.794639" pos="151.978556" lane="e0_0" slope="0.000000"/>
    </timestep>
    <timestep time="12.000">
        <vehicle id="veh0" x="171.773195" y="-1.600000" angle="90.000000" type="hetero" speed="19.794639" pos="171.773195" lane="e0_0" slope="0.000000"/>
    </timestep>
    <timestep time="13.000">
        <vehicle id="veh0" x="191.567834" y="-1.600000" angle="90.000000" type="hetero" speed="19.794639" pos="191.567834" lane="e0_0" slope="0.000000"/>
    </timestep>
    <timestep time="14.000">
        <vehicle id="veh0" x="211.362473" y="-1.600000" angle="90.000000" type="hetero" speed="19.794639" pos="211.362473" lane="e0_0" slope="0.000000"/>
    </timestep>
    <timestep time="15.000">
        <vehicle id="veh0" x="231.157112" y="-1.600000" angle="90.000000" type="hetero" speed="19.794639" pos="231.157112" lane="e0_0" slope="0.000000"/>
    </timestep>
    <timestep time="16.000">
        <vehicle id="veh0" x="250.951751" y="-1.600000" angle="90.000000" type="hetero" speed="19.794639" pos="250.951751" lane="e0_0" slope="0.000000"/>
    </timestep>
    <timestep time="17.000">
        <vehicle id="veh0" x="270.746390" y="-1.600000" angle="90.000000" type="hetero" speed="19.794639" pos="270.746390" lane="e0_0" slope="0.000000"/>
    </timestep>
    <timestep time="18.000">
        <vehicle id="veh0" x="290.541029" y="-1.600000" angle="90.000000" type="hetero" speed="19.794639" pos="290.541029" lane="e0_0" slope="0.000000"/>
    </timestep>
    <timestep time="19.000">
        <vehicle id="veh0" x="310.335668" y="-1.600000" angle="90.000000" type="hetero" speed="19.794639" pos="310.335668" lane="e0_0" slope="0.000000"/>
    </timestep>
    <timestep time="20.000">
        <vehicle id="veh0" x="330.130307" y="-1.600000" angle="90.000000" type="hetero" speed="19.794639" pos="330.130307" lane="e0_0" slope="0.000000"/>
    </timestep>
    <timestep time="21.000">
        <vehicle id="veh0" x="349.924946" y="-1.600000" angle="90.000000" type="hetero" speed="19.794639" pos="349.924946" lane="e0_0" slope="0.000000"/>
    </timestep>
    <timestep time="22.000">
        <vehicle id="veh0" x="369.719585" y="-1.600000" angle="90.000000" type="hetero" speed="19.794639" pos="369.719585" lane="e0_0" slope="0.000000"/>
    </timestep>
    <timestep time="23.000">
        <vehicle id="veh0" x="389.514224" y="-1.600000" angle="90.000000" type="hetero" speed="19.794639" pos="389.514224" lane="e0_0" slope="0.000000"/>
    </timestep>
    <timestep time="24.000">
        <vehicle id="veh0" x="409.308863" y="-1.600000" angle="90.000000" type="hetero" speed="19.794639" pos="409.308863" lane="e0_0" slope="0.000000"/>
    </timestep>
    <timestep time="25.000">
        <vehicle id="veh0" x="429.103502" y="-1.600000" angle="90.000000" type="hetero" speed="19.794639" pos="429.103502" lane="e0_0" slope="0.000000"/>
    </timestep>
    <timestep time="26.000">
        <vehicle id="veh0" x="448.898141" y="-1.600000" angle="90.000000" type="hetero" speed="19.794639" pos="448.898141" lane="e0_0" slope="0.000000"/>
    </timestep>
    <timestep time="27.000">
        <vehicle id="veh0" x="468.692780" y="-1.600000" angle="90.000000" type="hetero" speed="19.794639" pos="468.692780" lane="e0_0" slope="0.000000"/>
    </timestep>
    <timestep time="28.000">
        <vehicle id="veh0" x="488.487419" y="-1.600000" angle="90.000000" type="hetero" speed="19.794639" pos="488.487419" lane="e0_0" slope="0.000000"/>
    </timestep>
    <timestep time="29.000">
        <vehicle id="veh0" x="508.282058" y="-1.600000" angle="90.000000" type="hetero" speed="19.794639" pos="508.282058" lane="e0_0" slope="0.000000"/>
    </timestep>
    <timestep time="30.000">
        <vehicle id="veh0" x="528.076697" y="-1.600000" angle="90.000000" type="hetero" speed="19.794639" pos="528.076697" lane="e0_0" slope="0.000000"/>
    </timestep>
    <timestep time="31.000">
        <vehicle id="veh0" x="547.871336" y="-1.600000" angle="90.000000" type="hetero" speed="19.794639" pos="547.871336" lane="e0_0" slope="0.000000"/>
    </timestep>
    <timestep time="32.000">
        <vehicle id="veh0" x="567.665975" y="-1.600000" angle="90.000000" type="hetero" speed="19.794639" pos="567.665975" lane="e0_0" slope="0.000000"/>
    </timestep>
    <timestep time="33.000">
        <vehicle id="veh0" x="587.460614" y="-1.600000" angle="90.000000" type="hetero" speed="19.794639" pos="587.460614" lane="e0_0" slope="0.000000"/>
    </timestep>
    <timestep time="34.000">
        <vehicle id="veh0" x="607.255253" y="-1.600000" angle="90.000000" type="hetero" speed="19.794639" pos="607.255253" lane="e0_0" slope="0.000000"/>
    </timestep>
    <timestep time="35.000">
        <vehicle id="veh0" x="627.049892" y="-1.600000" angle="90.000000" type="hetero" speed="19.794639" pos="627.049892" lane="e0_0" slope="0.000000"/>
    </timestep>
    <timestep time="36.000">
        <vehicle id="veh0" x="646.844531" y="-1.600000" angle="90.000000" type="hetero" speed="19.794639" pos="646.844531" lane="e0_0" slope="0.000000"/>
    </timestep>
    <timestep time="37.000">
        <vehicle id="veh0" x="666.639170" y="-1.600000" angle="90.000000" type="hetero" speed="19.794639" pos="666.639170" lane="e0_0" slope="0.000000"/>
    </timestep>
    <timestep time="38.000">
        <vehicle id="veh0" x="686.433809" y="-1.600000" angle="90.000000" type="hetero" speed="19.794639" pos="686.433809" lane="e0_0" slope="0.000000"/>
    </timestep>
    <timestep time="39.000">
        <vehicle id="veh0" x="706.228448" y="-1.600000" angle="90.000000" type="hetero" speed="19.794639" pos="706.228448" lane="e0_0" slope="0.000000"/>
    </timestep>
    <timestep time="40.000">
        <vehicle id="veh0" x="726.023087" y="-1.600000" angle="90.000000" type="hetero" speed="19.794639" pos="726.023087" lane="e0_0" slope="0.000000"/>
    </timestep>
    <timestep time="41.000">
        <vehicle id="veh0" x="745.817726" y="-1.600000" angle="90.000000" type="hetero" speed="19.794639" pos="745.817726" lane="e0_0" slope="0.000000"/>
    </timestep>
    <timestep time="42.000">
        <vehicle id="veh0" x="765.612365" y="-1.600000" angle="90.000000" type="hetero" speed="19.794639" pos="765.612365" lane="e0_0" slope="0.000000"/>
    </timestep>
    <timestep time="43.000">
        <vehicle id="veh0" x="785.407004" y="-1.600000" angle="90.000000" type="hetero" speed="19.794639" pos="785.407004" lane="e0_0" slope="0.000000"/>
    </timestep>
    <timestep time="44.000">
        <vehicle id="veh0" x="805.201643" y="-1.600000" angle="90.000000" type="hetero" speed="19.794639" pos="805.201643" lane="e0_0" slope="0.000000"/>
    </timestep>
    <timestep time="45.000">
        <vehicle id="veh0" x="824.996282" y="-1.600000" angle="90.000000" type="hetero" speed="19.794639" pos="824.996282" lane="e0_0" slope="0.000000"/>
    </timestep>
    <timestep time="46.000">
        <vehicle id="veh0" x="844.790921" y="-1.600000" angle="90.000000" type="hetero" speed="19.794639" pos="844.790921" lane="e0_0" slope="0.000000"/>
    </timestep>
    <timestep time="47.000">
        <vehicle id="veh0" x="864.585560" y="-1.600000" angle="90.000000" type="hetero" speed="19.794639" pos="864.585560" lane="e0_0" slope="0.000000"/>
    </timestep>
    <timestep time="48.000">
        <vehicle id="veh0" x="884.380199" y="-1.600000" angle="90.000000" type="hetero" speed="19.794639" pos="884.380199" lane="e0_0" slope="0.000000"/>
    </timestep>
    <timestep time="49.000">
        <vehicle id="veh0" x="904.174838" y="-1.600000" angle="90.000000" type="hetero" speed="19.794639" pos="904.174838" lane="e0_0" slope="0.000000"/>
    </timestep>
    <timestep time="50.000">
        <vehicle id="veh0" x="923.969477" y="-1.600000" angle="90.000000" type="hetero" speed="19.794639" pos="923.969477" lane="e0_0" slope="0.000000"/>
    </timestep>
    <timestep time="51.000">
        <vehicle id="veh0" x="943.764116" y="-1.600000" angle="90.000000" type="hetero" speed="19.794639" pos="943.764116" lane="e0_0" slope="0.000000"/>
    </timestep>
    <timestep time="52.000">
        <vehicle id="veh0" x="963.558755" y="-1.600000" angle="90.000000" type="hetero" speed="19.794639" pos="963.558755" lane="e0_0" slope="0.000000"/>
    </timestep>
    <timestep time="53.000">
        <vehicle id="veh0" x="983.353394" y="-1.600000" angle="90.000000" type="hetero" speed="19.794639" pos="983.353394" lane="e0_0" slope="0.000000"/>
    </timestep>
    <timestep time="54.000">
        <vehicle id="veh0" x="1003.148033" y="-1.600000" angle="90.000000" type="hetero" speed="19.794639" pos="1003.148033" lane="e0_0" slope="0.000000"/>
    </timestep>
    <timestep time="55.000">
        <vehicle id="veh0" x="1022.942672" y="-1.600000" angle="90.000000" type="hetero" speed="19.794639" pos="1022.942672" lane="e0_0" slope="0.000000"/>
    </timestep>
    <timestep time="56.000">
        <vehicle id="veh0" x="1042.737311" y="-1.600000" angle="90.000000" type="hetero" speed="19.794639" pos="1042.737311" lane="e0_0" slope="0.000000"/>
    </timestep>
    <timestep time="57.000">
        <vehicle id="veh0" x="1062.531950" y="-1.600000" angle="90.000000" type="hetero" speed="19.794639" pos="1062.531950" lane="e0_0" slope="0.000000"/>
    </timestep>
    <timestep time="58.000">
        <vehicle id="veh0" x="1082.326589" y="-1.600000" angle="90.000000" type="hetero" speed="19.794639" pos="1082.326589" lane="e0_0" slope="0.000000"/>
    </timestep>
    <timestep time="59.000">
        <vehicle id="veh0" x="1102.121228" y="-1.600000" angle="90.000000" type="hetero" speed="19.794639" pos="1102.121228" lane="e0_0" slope="0.000000"/>
    </timestep>
    <timestep time="60.000">
        <vehicle id="veh0" x="1121.915867" y="-1.600000" angle="90.000000" type="hetero" speed="19.794639" pos="1121.915867" lane="e0_0" slope="0.000000"/>
    </timestep>
    <timestep time="61.000">
        <vehicle id="veh0" x="1141.710506" y="-1.600000" angle="90.000000" type="hetero" speed="19.794639" pos="1141.710506" lane="e0_0" slope="0.000000"/>
    </timestep>
    <timestep time="62.000">
        <vehicle id="veh0" x="1161.505145" y="-1.600000" angle="90.000000" type="hetero" speed="19.794639" pos="1161.505145" lane="e0_0" slope="0.000000"/>
    </timestep>
    <timestep time="63.000">
        <vehicle id="veh0" x="1181.299784" y="-1.600000" angle="90.000000" type="hetero" speed="19.794639" pos="1181.299784" lane="e0_0" slope="0.000000"/>
    </timestep>
    <timestep time="64.000">
        <vehicle id="veh0" x="1201.094423" y="-1.600000" angle="90.000000" type="hetero" speed="19.794639" pos="1201.094423" lane="e0_0" slope="0.000000"/>
    </timestep>
    <timestep time="65.000">
        <vehicle id="veh0" x="1220.889062" y="-1.600000" angle="90.000000" type="hetero" speed="19.794639" pos="1220.889062" lane="e0_0" slope="0.000000"/>
    </timestep>
    <timestep time="66.000">
        <vehicle id="veh0" x="1240.683701" y="-1.600000" angle="90.000000" type="hetero" speed="19.794639" pos="1240.683701" lane="e0_0" slope="0.000000"/>
    </timestep>
    <timestep time="67.000">
        <vehicle id="veh0" x="1260.478340" y="-1.600000" angle="90.000000" type="hetero" speed="19.794639" pos="1260.478340" lane="e0_0" slope="0.000000"/>
    </timestep>
    <timestep time="68.000">
        <vehicle id="veh0" x="1280.272979" y="-1.600000" angle="90.000000" type="hetero" speed="19.794639" pos="1280.272979" lane="e0_0" slope="0.000000"/>
    </timestep>
    <timestep time="69.000">
        <vehicle id="veh0" x="1300.067618" y="-1.600000" angle="90.000000" type="hetero" speed="19.794639" pos="1300.067618" lane="e0_0" slope="0.000000"/>
    </timestep>
    <timestep time="70.000">
        <vehicle id="veh0" x="1319.862257" y="-1.600000" angle="90.000000" type="hetero" speed="19.794639" pos="1319.862257" lane="e0_0" slope="0.000000"/>
    </timestep>
    <timestep time="71.000">
        <vehicle id="veh0" x="1339.656896" y="-1.600000" angle="90.000000" type="hetero" speed="19.794639" pos="1339.656896" lane="e0_0" slope="0.000000"/>
    </timestep>
    <timestep time="72.000">
        <vehicle id="veh0" x="1359.451535" y="-1.600000" angle="90.000000" type="hetero" speed="19.794639" pos="1359.451535" lane="e0_0" slope="0.000000"/>
    </timestep>
    <timestep time="73.000">
        <vehicle id="veh0" x="1379.246174" y="-1.600000" angle="90.000000" type="hetero" speed="19.794639" pos="1379.246174" lane="e0_0" slope="0.000000"/>
    </timestep>
    <timestep time="74.000">
        <vehicle id="veh0" x="1399.040813" y="-1.600000" angle="90.000000" type="hetero" speed="19.794639" pos="1399.040813" lane="e0_0" slope="0.000000"/>
    </timestep>
    <timestep time="75.000">
        <vehicle id="veh0" x="1418.835452" y="-1.600000" angle="90.000000" type="hetero" speed="19.794639" pos="1418.835452" lane="e0_0" slope="0.000000"/>
    </timestep>
    <timestep time="76.000">
        <vehicle id="veh0" x="1438.630091" y="-1.600000" angle="90.000000" type="hetero" speed="19.794639" pos="1438.630091" lane="e0_0" slope="0.000000"/>
    </timestep>
    <timestep time="77.000">
        <vehicle id="veh0" x="1458.424730" y="-1.600000" angle="90.000000" type="hetero" speed="19.794639" pos="1458.424730" lane="e0_0" slope="0.000000"/>
    </timestep>
    <timestep time="78.000">
        <vehicle id="veh0" x="1478.219369" y="-1.600000" angle="90.000000" type="hetero" speed="19.794639" pos="1478.219369" lane="e0_0" slope="0.000000"/>
    </timestep>
    <timestep time="79.000">
        <vehicle id="veh0" x="1498.014008" y="-1.600000" angle="90.000000" type="hetero" speed="19.794639" pos="1498.014008" lane="e0_0" slope="0.000000"/>
    </timestep>
</fcd-export>
