<?xml version="1.0" encoding="UTF-8"?>

<!-- generated on 2026-07-08 04:00:15 by Eclipse SUMO sumo Version 1.20.0
<configuration xmlns:xsi="http://www.w3.org/2001/XMLSchema-instance" xsi:noNamespaceSchemaLocation="http://sumo.dlr.de/xsd/sumoConfiguration.xsd">

    <input>
        <net-file value="net.net.xml"/>
        <route-files value="rou.rou.xml"/>
    </input>

    <output>
        <precision value="6"/>
        <fcd-output value="golden.ensemble/seed26.fcd.xml"/>
    </output>

    <time>
        <begin value="0"/>
        <end value="80"/>
        <step-length value="1"/>
    </time>

    <processing>
        <step-method.ballistic value="false"/>
        <collision.action value="none"/>
        <time-to-teleport value="-1"/>
        <default.action-step-length value="1"/>
        <default.speeddev value="0.1"/>
    </processing>

    <report>
        <no-step-log value="true"/>
    </report>

    <random_number>
        <seed value="26"/>
    </random_number>

</configuration>
-->

<fcd-export xmlns:xsi="http://www.w3.org/2001/XMLSchema-instance" xsi:noNamespaceSchemaLocation="http://sumo.dlr.de/xsd/fcd_file.xsd">
    <timestep time="0.000">
        <vehicle id="veh0" x="0.000000" y="-1.600000" angle="90.000000" type="hetero" speed="0.000000" pos="0.000000" lane="e0_0" slope="0.000000"/>
    </timestep>
    <timestep time="1.000">
        <vehicle id="veh0" x="2.600000" y="-1.600000" angle="90.000000" type="hetero" speed="2.600000" pos="2.600000" lane="e0_0" slope="0.000000"/>
    </timestep>
    <timestep time="2.000">
        <vehicle id="veh0" x="7.800000" y="-1.600000" angle="90.000000" type="hetero" speed="5.200000" pos="7.800000" lane="e0_0" slope="0.000000"/>
    </timestep>
    <timestep time="3.000">
        <vehicle id="veh0" x="15.600000" y="-1.600000" angle="90.000000" type="hetero" speed="7.800000" pos="15.600000" lane="e0_0" slope="0.000000"/>
    </timestep>
    <timestep time="4.000">
        <vehicle id="veh0" x="26.000000" y="-1.600000" angle="90.000000" type="hetero" speed="10.400000" pos="26.000000" lane="e0_0" slope="0.000000"/>
    </timestep>
    <timestep time="5.000">
        <vehicle id="veh0" x="38.503778" y="-1.600000" angle="90.000000" type="hetero" speed="12.503778" pos="38.503778" lane="e0_0" slope="0.000000"/>
    </timestep>
    <timestep time="6.000">
        <vehicle id="veh0" x="51.007556" y="-1.600000" angle="90.000000" type="hetero" speed="12.503778" pos="51.007556" lane="e0_0" slope="0.000000"/>
    </timestep>
    <timestep time="7.000">
        <vehicle id="veh0" x="63.511334" y="-1.600000" angle="90.000000" type="hetero" speed="12.503778" pos="63.511334" lane="e0_0" slope="0.000000"/>
    </timestep>
    <timestep time="8.000">
        <vehicle id="veh0" x="76.015112" y="-1.600000" angle="90.000000" type="hetero" speed="12.503778" pos="76.015112" lane="e0_0" slope="0.000000"/>
    </timestep>
    <timestep time="9.000">
        <vehicle id="veh0" x="88.518890" y="-1.600000" angle="90.000000" type="hetero" speed="12.503778" pos="88.518890" lane="e0_0" slope="0.000000"/>
    </timestep>
    <timestep time="10.000">
        <vehicle id="veh0" x="101.022668" y="-1.600000" angle="90.000000" type="hetero" speed="12.503778" pos="101.022668" lane="e0_0" slope="0.000000"/>
    </timestep>
    <timestep time="11.000">
        <vehicle id="veh0" x="113.526446" y="-1.600000" angle="90.000000" type="hetero" speed="12.503778" pos="113.526446" lane="e0_0" slope="0.000000"/>
    </timestep>
    <timestep time="12.000">
        <vehicle id="veh0" x="126.030224" y="-1.600000" angle="90.000000" type="hetero" speed="12.503778" pos="126.030224" lane="e0_0" slope="0.000000"/>
    </timestep>
    <timestep time="13.000">
        <vehicle id="veh0" x="138.534002" y="-1.600000" angle="90.000000" type="hetero" speed="12.503778" pos="138.534002" lane="e0_0" slope="0.000000"/>
    </timestep>
    <timestep time="14.000">
        <vehicle id="veh0" x="151.037780" y="-1.600000" angle="90.000000" type="hetero" speed="12.503778" pos="151.037780" lane="e0_0" slope="0.000000"/>
    </timestep>
    <timestep time="15.000">
        <vehicle id="veh0" x="163.541558" y="-1.600000" angle="90.000000" type="hetero" speed="12.503778" pos="163.541558" lane="e0_0" slope="0.000000"/>
    </timestep>
    <timestep time="16.000">
        <vehicle id="veh0" x="176.045336" y="-1.600000" angle="90.000000" type="hetero" speed="12.503778" pos="176.045336" lane="e0_0" slope="0.000000"/>
    </timestep>
    <timestep time="17.000">
        <vehicle id="veh0" x="188.549114" y="-1.600000" angle="90.000000" type="hetero" speed="12.503778" pos="188.549114" lane="e0_0" slope="0.000000"/>
    </timestep>
    <timestep time="18.000">
        <vehicle id="veh0" x="201.052892" y="-1.600000" angle="90.000000" type="hetero" speed="12.503778" pos="201.052892" lane="e0_0" slope="0.000000"/>
    </timestep>
    <timestep time="19.000">
        <vehicle id="veh0" x="213.556670" y="-1.600000" angle="90.000000" type="hetero" speed="12.503778" pos="213.556670" lane="e0_0" slope="0.000000"/>
    </timestep>
    <timestep time="20.000">
        <vehicle id="veh0" x="226.060448" y="-1.600000" angle="90.000000" type="hetero" speed="12.503778" pos="226.060448" lane="e0_0" slope="0.000000"/>
    </timestep>
    <timestep time="21.000">
        <vehicle id="veh0" x="238.564226" y="-1.600000" angle="90.000000" type="hetero" speed="12.503778" pos="238.564226" lane="e0_0" slope="0.000000"/>
    </timestep>
    <timestep time="22.000">
        <vehicle id="veh0" x="251.068004" y="-1.600000" angle="90.000000" type="hetero" speed="12.503778" pos="251.068004" lane="e0_0" slope="0.000000"/>
    </timestep>
    <timestep time="23.000">
        <vehicle id="veh0" x="263.571782" y="-1.600000" angle="90.000000" type="hetero" speed="12.503778" pos="263.571782" lane="e0_0" slope="0.000000"/>
    </timestep>
    <timestep time="24.000">
        <vehicle id="veh0" x="276.075560" y="-1.600000" angle="90.000000" type="hetero" speed="12.503778" pos="276.075560" lane="e0_0" slope="0.000000"/>
    </timestep>
    <timestep time="25.000">
        <vehicle id="veh0" x="288.579338" y="-1.600000" angle="90.000000" type="hetero" speed="12.503778" pos="288.579338" lane="e0_0" slope="0.000000"/>
    </timestep>
    <timestep time="26.000">
        <vehicle id="veh0" x="301.083116" y="-1.600000" angle="90.000000" type="hetero" speed="12.503778" pos="301.083116" lane="e0_0" slope="0.000000"/>
    </timestep>
    <timestep time="27.000">
        <vehicle id="veh0" x="313.586894" y="-1.600000" angle="90.000000" type="hetero" speed="12.503778" pos="313.586894" lane="e0_0" slope="0.000000"/>
    </timestep>
    <timestep time="28.000">
        <vehicle id="veh0" x="326.090672" y="-1.600000" angle="90.000000" type="hetero" speed="12.503778" pos="326.090672" lane="e0_0" slope="0.000000"/>
    </timestep>
    <timestep time="29.000">
        <vehicle id="veh0" x="338.594450" y="-1.600000" angle="90.000000" type="hetero" speed="12.503778" pos="338.594450" lane="e0_0" slope="0.000000"/>
    </timestep>
    <timestep time="30.000">
        <vehicle id="veh0" x="351.098228" y="-1.600000" angle="90.000000" type="hetero" speed="12.503778" pos="351.098228" lane="e0_0" slope="0.000000"/>
    </timestep>
    <timestep time="31.000">
        <vehicle id="veh0" x="363.602006" y="-1.600000" angle="90.000000" type="hetero" speed="12.503778" pos="363.602006" lane="e0_0" slope="0.000000"/>
    </timestep>
    <timestep time="32.000">
        <vehicle id="veh0" x="376.105784" y="-1.600000" angle="90.000000" type="hetero" speed="12.503778" pos="376.105784" lane="e0_0" slope="0.000000"/>
    </timestep>
    <timestep time="33.000">
        <vehicle id="veh0" x="388.609562" y="-1.600000" angle="90.000000" type="hetero" speed="12.503778" pos="388.609562" lane="e0_0" slope="0.000000"/>
    </timestep>
    <timestep time="34.000">
        <vehicle id="veh0" x="401.113340" y="-1.600000" angle="90.000000" type="hetero" speed="12.503778" pos="401.113340" lane="e0_0" slope="0.000000"/>
    </timestep>
    <timestep time="35.000">
        <vehicle id="veh0" x="413.617118" y="-1.600000" angle="90.000000" type="hetero" speed="12.503778" pos="413.617118" lane="e0_0" slope="0.000000"/>
    </timestep>
    <timestep time="36.000">
        <vehicle id="veh0" x="426.120896" y="-1.600000" angle="90.000000" type="hetero" speed="12.503778" pos="426.120896" lane="e0_0" slope="0.000000"/>
    </timestep>
    <timestep time="37.000">
        <vehicle id="veh0" x="438.624674" y="-1.600000" angle="90.000000" type="hetero" speed="12.503778" pos="438.624674" lane="e0_0" slope="0.000000"/>
    </timestep>
    <timestep time="38.000">
        <vehicle id="veh0" x="451.128452" y="-1.600000" angle="90.000000" type="hetero" speed="12.503778" pos="451.128452" lane="e0_0" slope="0.000000"/>
    </timestep>
    <timestep time="39.000">
        <vehicle id="veh0" x="463.632230" y="-1.600000" angle="90.000000" type="hetero" speed="12.503778" pos="463.632230" lane="e0_0" slope="0.000000"/>
    </timestep>
    <timestep time="40.000">
        <vehicle id="veh0" x="476.136008" y="-1.600000" angle="90.000000" type="hetero" speed="12.503778" pos="476.136008" lane="e0_0" slope="0.000000"/>
    </timestep>
    <timestep time="41.000">
        <vehicle id="veh0" x="488.639786" y="-1.600000" angle="90.000000" type="hetero" speed="12.503778" pos="488.639786" lane="e0_0" slope="0.000000"/>
    </timestep>
    <timestep time="42.000">
        <vehicle id="veh0" x="501.143564" y="-1.600000" angle="90.000000" type="hetero" speed="12.503778" pos="501.143564" lane="e0_0" slope="0.000000"/>
    </timestep>
    <timestep time="43.000">
        <vehicle id="veh0" x="513.647342" y="-1.600000" angle="90.000000" type="hetero" speed="12.503778" pos="513.647342" lane="e0_0" slope="0.000000"/>
    </timestep>
    <timestep time="44.000">
        <vehicle id="veh0" x="526.151120" y="-1.600000" angle="90.000000" type="hetero" speed="12.503778" pos="526.151120" lane="e0_0" slope="0.000000"/>
    </timestep>
    <timestep time="45.000">
        <vehicle id="veh0" x="538.654898" y="-1.600000" angle="90.000000" type="hetero" speed="12.503778" pos="538.654898" lane="e0_0" slope="0.000000"/>
    </timestep>
    <timestep time="46.000">
        <vehicle id="veh0" x="551.158676" y="-1.600000" angle="90.000000" type="hetero" speed="12.503778" pos="551.158676" lane="e0_0" slope="0.000000"/>
    </timestep>
    <timestep time="47.000">
        <vehicle id="veh0" x="563.662454" y="-1.600000" angle="90.000000" type="hetero" speed="12.503778" pos="563.662454" lane="e0_0" slope="0.000000"/>
    </timestep>
    <timestep time="48.000">
        <vehicle id="veh0" x="576.166232" y="-1.600000" angle="90.000000" type="hetero" speed="12.503778" pos="576.166232" lane="e0_0" slope="0.000000"/>
    </timestep>
    <timestep time="49.000">
        <vehicle id="veh0" x="588.670010" y="-1.600000" angle="90.000000" type="hetero" speed="12.503778" pos="588.670010" lane="e0_0" slope="0.000000"/>
    </timestep>
    <timestep time="50.000">
        <vehicle id="veh0" x="601.173788" y="-1.600000" angle="90.000000" type="hetero" speed="12.503778" pos="601.173788" lane="e0_0" slope="0.000000"/>
    </timestep>
    <timestep time="51.000">
        <vehicle id="veh0" x="613.677566" y="-1.600000" angle="90.000000" type="hetero" speed="12.503778" pos="613.677566" lane="e0_0" slope="0.000000"/>
    </timestep>
    <timestep time="52.000">
        <vehicle id="veh0" x="626.181344" y="-1.600000" angle="90.000000" type="hetero" speed="12.503778" pos="626.181344" lane="e0_0" slope="0.000000"/>
    </timestep>
    <timestep time="53.000">
        <vehicle id="veh0" x="638.685122" y="-1.600000" angle="90.000000" type="hetero" speed="12.503778" pos="638.685122" lane="e0_0" slope="0.000000"/>
    </timestep>
    <timestep time="54.000">
        <vehicle id="veh0" x="651.188900" y="-1.600000" angle="90.000000" type="hetero" speed="12.503778" pos="651.188900" lane="e0_0" slope="0.000000"/>
    </timestep>
    <timestep time="55.000">
        <vehicle id="veh0" x="663.692678" y="-1.600000" angle="90.000000" type="hetero" speed="12.503778" pos="663.692678" lane="e0_0" slope="0.000000"/>
    </timestep>
    <timestep time="56.000">
        <vehicle id="veh0" x="676.196456" y="-1.600000" angle="90.000000" type="hetero" speed="12.503778" pos="676.196456" lane="e0_0" slope="0.000000"/>
    </timestep>
    <timestep time="57.000">
        <vehicle id="veh0" x="688.700234" y="-1.600000" angle="90.000000" type="hetero" speed="12.503778" pos="688.700234" lane="e0_0" slope="0.000000"/>
    </timestep>
    <timestep time="58.000">
        <vehicle id="veh0" x="701.204012" y="-1.600000" angle="90.000000" type="hetero" speed="12.503778" pos="701.204012" lane="e0_0" slope="0.000000"/>
    </timestep>
    <timestep time="59.000">
        <vehicle id="veh0" x="713.707790" y="-1.600000" angle="90.000000" type="hetero" speed="12.503778" pos="713.707790" lane="e0_0" slope="0.000000"/>
    </timestep>
    <timestep time="60.000">
        <vehicle id="veh0" x="726.211568" y="-1.600000" angle="90.000000" type="hetero" speed="12.503778" pos="726.211568" lane="e0_0" slope="0.000000"/>
    </timestep>
    <timestep time="61.000">
        <vehicle id="veh0" x="738.715346" y="-1.600000" angle="90.000000" type="hetero" speed="12.503778" pos="738.715346" lane="e0_0" slope="0.000000"/>
    </timestep>
    <timestep time="62.000">
        <vehicle id="veh0" x="751.219124" y="-1.600000" angle="90.000000" type="hetero" speed="12.503778" pos="751.219124" lane="e0_0" slope="0.000000"/>
    </timestep>
    <timestep time="63.000">
        <vehicle id="veh0" x="763.722902" y="-1.600000" angle="90.000000" type="hetero" speed="12.503778" pos="763.722902" lane="e0_0" slope="0.000000"/>
    </timestep>
    <timestep time="64.000">
        <vehicle id="veh0" x="776.226680" y="-1.600000" angle="90.000000" type="hetero" speed="12.503778" pos="776.226680" lane="e0_0" slope="0.000000"/>
    </timestep>
    <timestep time="65.000">
        <vehicle id="veh0" x="788.730458" y="-1.600000" angle="90.000000" type="hetero" speed="12.503778" pos="788.730458" lane="e0_0" slope="0.000000"/>
    </timestep>
    <timestep time="66.000">
        <vehicle id="veh0" x="801.234236" y="-1.600000" angle="90.000000" type="hetero" speed="12.503778" pos="801.234236" lane="e0_0" slope="0.000000"/>
    </timestep>
    <timestep time="67.000">
        <vehicle id="veh0" x="813.738014" y="-1.600000" angle="90.000000" type="hetero" speed="12.503778" pos="813.738014" lane="e0_0" slope="0.000000"/>
    </timestep>
    <timestep time="68.000">
        <vehicle id="veh0" x="826.241792" y="-1.600000" angle="90.000000" type="hetero" speed="12.503778" pos="826.241792" lane="e0_0" slope="0.000000"/>
    </timestep>
    <timestep time="69.000">
        <vehicle id="veh0" x="838.745570" y="-1.600000" angle="90.000000" type="hetero" speed="12.503778" pos="838.745570" lane="e0_0" slope="0.000000"/>
    </timestep>
    <timestep time="70.000">
        <vehicle id="veh0" x="851.249348" y="-1.600000" angle="90.000000" type="hetero" speed="12.503778" pos="851.249348" lane="e0_0" slope="0.000000"/>
    </timestep>
    <timestep time="71.000">
        <vehicle id="veh0" x="863.753126" y="-1.600000" angle="90.000000" type="hetero" speed="12.503778" pos="863.753126" lane="e0_0" slope="0.000000"/>
    </timestep>
    <timestep time="72.000">
        <vehicle id="veh0" x="876.256904" y="-1.600000" angle="90.000000" type="hetero" speed="12.503778" pos="876.256904" lane="e0_0" slope="0.000000"/>
    </timestep>
    <timestep time="73.000">
        <vehicle id="veh0" x="888.760682" y="-1.600000" angle="90.000000" type="hetero" speed="12.503778" pos="888.760682" lane="e0_0" slope="0.000000"/>
    </timestep>
    <timestep time="74.000">
        <vehicle id="veh0" x="901.264460" y="-1.600000" angle="90.000000" type="hetero" speed="12.503778" pos="901.264460" lane="e0_0" slope="0.000000"/>
    </timestep>
    <timestep time="75.000">
        <vehicle id="veh0" x="913.768238" y="-1.600000" angle="90.000000" type="hetero" speed="12.503778" pos="913.768238" lane="e0_0" slope="0.000000"/>
    </timestep>
    <timestep time="76.000">
        <vehicle id="veh0" x="926.272016" y="-1.600000" angle="90.000000" type="hetero" speed="12.503778" pos="926.272016" lane="e0_0" slope="0.000000"/>
    </timestep>
    <timestep time="77.000">
        <vehicle id="veh0" x="938.775794" y="-1.600000" angle="90.000000" type="hetero" speed="12.503778" pos="938.775794" lane="e0_0" slope="0.000000"/>
    </timestep>
    <timestep time="78.000">
        <vehicle id="veh0" x="951.279572" y="-1.600000" angle="90.000000" type="hetero" speed="12.503778" pos="951.279572" lane="e0_0" slope="0.000000"/>
    </timestep>
    <timestep time="79.000">
        <vehicle id="veh0" x="963.783350" y="-1.600000" angle="90.000000" type="hetero" speed="12.503778" pos="963.783350" lane="e0_0" slope="0.000000"/>
    </timestep>
</fcd-export>
