<?xml version="1.0" encoding="UTF-8"?>

<!-- generated on 2026-07-08 04:00:13 by Eclipse SUMO sumo Version 1.20.0
<configuration xmlns:xsi="http://www.w3.org/2001/XMLSchema-instance" xsi:noNamespaceSchemaLocation="http://sumo.dlr.de/xsd/sumoConfiguration.xsd">

    <input>
        <net-file value="net.net.xml"/>
        <route-files value="rou.rou.xml"/>
    </input>

    <output>
        <precision value="6"/>
        <fcd-output value="golden.ensemble/seed04.fcd.xml"/>
    </output>

    <time>
        <begin value="0"/>
        <end value="80"/>
        <step-length value="1"/>
    </time>

    <processing>
        <step-method.ballistic value="false"/>
        <collision.action value="none"/>
        <time-to-teleport value="-1"/>
        <default.action-step-length value="1"/>
        <default.speeddev value="0.1"/>
    </processing>

    <report>
        <no-step-log value="true"/>
    </report>

    <random_number>
        <seed value="4"/>
    </random_number>

</configuration>
-->

<fcd-export xmlns:xsi="http://www.w3.org/2001/XMLSchema-instance" xsi:noNamespaceSchemaLocation="http://sumo.dlr.de/xsd/fcd_file.xsd">
    <timestep time="0.000">
        <vehicle id="veh0" x="0.000000" y="-1.600000" angle="90.000000" type="hetero" speed="0.000000" pos="0.000000" lane="e0_0" slope="0.000000"/>
    </timestep>
    <timestep time="1.000">
        <vehicle id="veh0" x="2.600000" y="-1.600000" angle="90.000000" type="hetero" speed="2.600000" pos="2.600000" lane="e0_0" slope="0.000000"/>
    </timestep>
    <timestep time="2.000">
        <vehicle id="veh0" x="7.800000" y="-1.600000" angle="90.000000" type="hetero" speed="5.200000" pos="7.800000" lane="e0_0" slope="0.000000"/>
    </timestep>
    <timestep time="3.000">
        <vehicle id="veh0" x="15.600000" y="-1.600000" angle="90.000000" type="hetero" speed="7.800000" pos="15.600000" lane="e0_0" slope="0.000000"/>
    </timestep>
    <timestep time="4.000">
        <vehicle id="veh0" x="26.000000" y="-1.600000" angle="90.000000" type="hetero" speed="10.400000" pos="26.000000" lane="e0_0" slope="0.000000"/>
    </timestep>
    <timestep time="5.000">
        <vehicle id="veh0" x="39.000000" y="-1.600000" angle="90.000000" type="hetero" speed="13.000000" pos="39.000000" lane="e0_0" slope="0.000000"/>
    </timestep>
    <timestep time="6.000">
        <vehicle id="veh0" x="53.145576" y="-1.600000" angle="90.000000" type="hetero" speed="14.145576" pos="53.145576" lane="e0_0" slope="0.000000"/>
    </timestep>
    <timestep time="7.000">
        <vehicle id="veh0" x="67.291152" y="-1.600000" angle="90.000000" type="hetero" speed="14.145576" pos="67.291152" lane="e0_0" slope="0.000000"/>
    </timestep>
    <timestep time="8.000">
        <vehicle id="veh0" x="81.436728" y="-1.600000" angle="90.000000" type="hetero" speed="14.145576" pos="81.436728" lane="e0_0" slope="0.000000"/>
    </timestep>
    <timestep time="9.000">
        <vehicle id="veh0" x="95.582304" y="-1.600000" angle="90.000000" type="hetero" speed="14.145576" pos="95.582304" lane="e0_0" slope="0.000000"/>
    </timestep>
    <timestep time="10.000">
        <vehicle id="veh0" x="109.727880" y="-1.600000" angle="90.000000" type="hetero" speed="14.145576" pos="109.727880" lane="e0_0" slope="0.000000"/>
    </timestep>
    <timestep time="11.000">
        <vehicle id="veh0" x="123.873456" y="-1.600000" angle="90.000000" type="hetero" speed="14.145576" pos="123.873456" lane="e0_0" slope="0.000000"/>
    </timestep>
    <timestep time="12.000">
        <vehicle id="veh0" x="138.019032" y="-1.600000" angle="90.000000" type="hetero" speed="14.145576" pos="138.019032" lane="e0_0" slope="0.000000"/>
    </timestep>
    <timestep time="13.000">
        <vehicle id="veh0" x="152.164608" y="-1.600000" angle="90.000000" type="hetero" speed="14.145576" pos="152.164608" lane="e0_0" slope="0.000000"/>
    </timestep>
    <timestep time="14.000">
        <vehicle id="veh0" x="166.310184" y="-1.600000" angle="90.000000" type="hetero" speed="14.145576" pos="166.310184" lane="e0_0" slope="0.000000"/>
    </timestep>
    <timestep time="15.000">
        <vehicle id="veh0" x="180.455760" y="-1.600000" angle="90.000000" type="hetero" speed="14.145576" pos="180.455760" lane="e0_0" slope="0.000000"/>
    </timestep>
    <timestep time="16.000">
        <vehicle id="veh0" x="194.601336" y="-1.600000" angle="90.000000" type="hetero" speed="14.145576" pos="194.601336" lane="e0_0" slope="0.000000"/>
    </timestep>
    <timestep time="17.000">
        <vehicle id="veh0" x="208.746912" y="-1.600000" angle="90.000000" type="hetero" speed="14.145576" pos="208.746912" lane="e0_0" slope="0.000000"/>
    </timestep>
    <timestep time="18.000">
        <vehicle id="veh0" x="222.892488" y="-1.600000" angle="90.000000" type="hetero" speed="14.145576" pos="222.892488" lane="e0_0" slope="0.000000"/>
    </timestep>
    <timestep time="19.000">
        <vehicle id="veh0" x="237.038064" y="-1.600000" angle="90.000000" type="hetero" speed="14.145576" pos="237.038064" lane="e0_0" slope="0.000000"/>
    </timestep>
    <timestep time="20.000">
        <vehicle id="veh0" x="251.183640" y="-1.600000" angle="90.000000" type="hetero" speed="14.145576" pos="251.183640" lane="e0_0" slope="0.000000"/>
    </timestep>
    <timestep time="21.000">
        <vehicle id="veh0" x="265.329216" y="-1.600000" angle="90.000000" type="hetero" speed="14.145576" pos="265.329216" lane="e0_0" slope="0.000000"/>
    </timestep>
    <timestep time="22.000">
        <vehicle id="veh0" x="279.474792" y="-1.600000" angle="90.000000" type="hetero" speed="14.145576" pos="279.474792" lane="e0_0" slope="0.000000"/>
    </timestep>
    <timestep time="23.000">
        <vehicle id="veh0" x="293.620368" y="-1.600000" angle="90.000000" type="hetero" speed="14.145576" pos="293.620368" lane="e0_0" slope="0.000000"/>
    </timestep>
    <timestep time="24.000">
        <vehicle id="veh0" x="307.765944" y="-1.600000" angle="90.000000" type="hetero" speed="14.145576" pos="307.765944" lane="e0_0" slope="0.000000"/>
    </timestep>
    <timestep time="25.000">
        <vehicle id="veh0" x="321.911520" y="-1.600000" angle="90.000000" type="hetero" speed="14.145576" pos="321.911520" lane="e0_0" slope="0.000000"/>
    </timestep>
    <timestep time="26.000">
        <vehicle id="veh0" x="336.057096" y="-1.600000" angle="90.000000" type="hetero" speed="14.145576" pos="336.057096" lane="e0_0" slope="0.000000"/>
    </timestep>
    <timestep time="27.000">
        <vehicle id="veh0" x="350.202672" y="-1.600000" angle="90.000000" type="hetero" speed="14.145576" pos="350.202672" lane="e0_0" slope="0.000000"/>
    </timestep>
    <timestep time="28.000">
        <vehicle id="veh0" x="364.348248" y="-1.600000" angle="90.000000" type="hetero" speed="14.145576" pos="364.348248" lane="e0_0" slope="0.000000"/>
    </timestep>
    <timestep time="29.000">
        <vehicle id="veh0" x="378.493824" y="-1.600000" angle="90.000000" type="hetero" speed="14.145576" pos="378.493824" lane="e0_0" slope="0.000000"/>
    </timestep>
    <timestep time="30.000">
        <vehicle id="veh0" x="392.639400" y="-1.600000" angle="90.000000" type="hetero" speed="14.145576" pos="392.639400" lane="e0_0" slope="0.000000"/>
    </timestep>
    <timestep time="31.000">
        <vehicle id="veh0" x="406.784976" y="-1.600000" angle="90.000000" type="hetero" speed="14.145576" pos="406.784976" lane="e0_0" slope="0.000000"/>
    </timestep>
    <timestep time="32.000">
        <vehicle id="veh0" x="420.930552" y="-1.600000" angle="90.000000" type="hetero" speed="14.145576" pos="420.930552" lane="e0_0" slope="0.000000"/>
    </timestep>
    <timestep time="33.000">
        <vehicle id="veh0" x="435.076128" y="-1.600000" angle="90.000000" type="hetero" speed="14.145576" pos="435.076128" lane="e0_0" slope="0.000000"/>
    </timestep>
    <timestep time="34.000">
        <vehicle id="veh0" x="449.221704" y="-1.600000" angle="90.000000" type="hetero" speed="14.145576" pos="449.221704" lane="e0_0" slope="0.000000"/>
    </timestep>
    <timestep time="35.000">
        <vehicle id="veh0" x="463.367280" y="-1.600000" angle="90.000000" type="hetero" speed="14.145576" pos="463.367280" lane="e0_0" slope="0.000000"/>
    </timestep>
    <timestep time="36.000">
        <vehicle id="veh0" x="477.512856" y="-1.600000" angle="90.000000" type="hetero" speed="14.145576" pos="477.512856" lane="e0_0" slope="0.000000"/>
    </timestep>
    <timestep time="37.000">
        <vehicle id="veh0" x="491.658432" y="-1.600000" angle="90.000000" type="hetero" speed="14.145576" pos="491.658432" lane="e0_0" slope="0.000000"/>
    </timestep>
    <timestep time="38.000">
        <vehicle id="veh0" x="505.804008" y="-1.600000" angle="90.000000" type="hetero" speed="14.145576" pos="505.804008" lane="e0_0" slope="0.000000"/>
    </timestep>
    <timestep time="39.000">
        <vehicle id="veh0" x="519.949584" y="-1.600000" angle="90.000000" type="hetero" speed="14.145576" pos="519.949584" lane="e0_0" slope="0.000000"/>
    </timestep>
    <timestep time="40.000">
        <vehicle id="veh0" x="534.095160" y="-1.600000" angle="90.000000" type="hetero" speed="14.145576" pos="534.095160" lane="e0_0" slope="0.000000"/>
    </timestep>
    <timestep time="41.000">
        <vehicle id="veh0" x="548.240736" y="-1.600000" angle="90.000000" type="hetero" speed="14.145576" pos="548.240736" lane="e0_0" slope="0.000000"/>
    </timestep>
    <timestep time="42.000">
        <vehicle id="veh0" x="562.386312" y="-1.600000" angle="90.000000" type="hetero" speed="14.145576" pos="562.386312" lane="e0_0" slope="0.000000"/>
    </timestep>
    <timestep time="43.000">
        <vehicle id="veh0" x="576.531888" y="-1.600000" angle="90.000000" type="hetero" speed="14.145576" pos="576.531888" lane="e0_0" slope="0.000000"/>
    </timestep>
    <timestep time="44.000">
        <vehicle id="veh0" x="590.677464" y="-1.600000" angle="90.000000" type="hetero" speed="14.145576" pos="590.677464" lane="e0_0" slope="0.000000"/>
    </timestep>
    <timestep time="45.000">
        <vehicle id="veh0" x="604.823040" y="-1.600000" angle="90.000000" type="hetero" speed="14.145576" pos="604.823040" lane="e0_0" slope="0.000000"/>
    </timestep>
    <timestep time="46.000">
        <vehicle id="veh0" x="618.968616" y="-1.600000" angle="90.000000" type="hetero" speed="14.145576" pos="618.968616" lane="e0_0" slope="0.000000"/>
    </timestep>
    <timestep time="47.000">
        <vehicle id="veh0" x="633.114192" y="-1.600000" angle="90.000000" type="hetero" speed="14.145576" pos="633.114192" lane="e0_0" slope="0.000000"/>
    </timestep>
    <timestep time="48.000">
        <vehicle id="veh0" x="647.259768" y="-1.600000" angle="90.000000" type="hetero" speed="14.145576" pos="647.259768" lane="e0_0" slope="0.000000"/>
    </timestep>
    <timestep time="49.000">
        <vehicle id="veh0" x="661.405344" y="-1.600000" angle="90.000000" type="hetero" speed="14.145576" pos="661.405344" lane="e0_0" slope="0.000000"/>
    </timestep>
    <timestep time="50.000">
        <vehicle id="veh0" x="675.550920" y="-1.600000" angle="90.000000" type="hetero" speed="14.145576" pos="675.550920" lane="e0_0" slope="0.000000"/>
    </timestep>
    <timestep time="51.000">
        <vehicle id="veh0" x="689.696496" y="-1.600000" angle="90.000000" type="hetero" speed="14.145576" pos="689.696496" lane="e0_0" slope="0.000000"/>
    </timestep>
    <timestep time="52.000">
        <vehicle id="veh0" x="703.842072" y="-1.600000" angle="90.000000" type="hetero" speed="14.145576" pos="703.842072" lane="e0_0" slope="0.000000"/>
    </timestep>
    <timestep time="53.000">
        <vehicle id="veh0" x="717.987648" y="-1.600000" angle="90.000000" type="hetero" speed="14.145576" pos="717.987648" lane="e0_0" slope="0.000000"/>
    </timestep>
    <timestep time="54.000">
        <vehicle id="veh0" x="732.133224" y="-1.600000" angle="90.000000" type="hetero" speed="14.145576" pos="732.133224" lane="e0_0" slope="0.000000"/>
    </timestep>
    <timestep time="55.000">
        <vehicle id="veh0" x="746.278800" y="-1.600000" angle="90.000000" type="hetero" speed="14.145576" pos="746.278800" lane="e0_0" slope="0.000000"/>
    </timestep>
    <timestep time="56.000">
        <vehicle id="veh0" x="760.424376" y="-1.600000" angle="90.000000" type="hetero" speed="14.145576" pos="760.424376" lane="e0_0" slope="0.000000"/>
    </timestep>
    <timestep time="57.000">
        <vehicle id="veh0" x="774.569952" y="-1.600000" angle="90.000000" type="hetero" speed="14.145576" pos="774.569952" lane="e0_0" slope="0.000000"/>
    </timestep>
    <timestep time="58.000">
        <vehicle id="veh0" x="788.715528" y="-1.600000" angle="90.000000" type="hetero" speed="14.145576" pos="788.715528" lane="e0_0" slope="0.000000"/>
    </timestep>
    <timestep time="59.000">
        <vehicle id="veh0" x="802.861104" y="-1.600000" angle="90.000000" type="hetero" speed="14.145576" pos="802.861104" lane="e0_0" slope="0.000000"/>
    </timestep>
    <timestep time="60.000">
        <vehicle id="veh0" x="817.006680" y="-1.600000" angle="90.000000" type="hetero" speed="14.145576" pos="817.006680" lane="e0_0" slope="0.000000"/>
    </timestep>
    <timestep time="61.000">
        <vehicle id="veh0" x="831.152256" y="-1.600000" angle="90.000000" type="hetero" speed="14.145576" pos="831.152256" lane="e0_0" slope="0.000000"/>
    </timestep>
    <timestep time="62.000">
        <vehicle id="veh0" x="845.297832" y="-1.600000" angle="90.000000" type="hetero" speed="14.145576" pos="845.297832" lane="e0_0" slope="0.000000"/>
    </timestep>
    <timestep time="63.000">
        <vehicle id="veh0" x="859.443408" y="-1.600000" angle="90.000000" type="hetero" speed="14.145576" pos="859.443408" lane="e0_0" slope="0.000000"/>
    </timestep>
    <timestep time="64.000">
        <vehicle id="veh0" x="873.588984" y="-1.600000" angle="90.000000" type="hetero" speed="14.145576" pos="873.588984" lane="e0_0" slope="0.000000"/>
    </timestep>
    <timestep time="65.000">
        <vehicle id="veh0" x="887.734560" y="-1.600000" angle="90.000000" type="hetero" speed="14.145576" pos="887.734560" lane="e0_0" slope="0.000000"/>
    </timestep>
    <timestep time="66.000">
        <vehicle id="veh0" x="901.880136" y="-1.600000" angle="90.000000" type="hetero" speed="14.145576" pos="901.880136" lane="e0_0" slope="0.000000"/>
    </timestep>
    <timestep time="67.000">
        <vehicle id="veh0" x="916.025712" y="-1.600000" angle="90.000000" type="hetero" speed="14.145576" pos="916.025712" lane="e0_0" slope="0.000000"/>
    </timestep>
    <timestep time="68.000">
        <vehicle id="veh0" x="930.171288" y="-1.600000" angle="90.000000" type="hetero" speed="14.145576" pos="930.171288" lane="e0_0" slope="0.000000"/>
    </timestep>
    <timestep time="69.000">
        <vehicle id="veh0" x="944.316864" y="-1.600000" angle="90.000000" type="hetero" speed="14.145576" pos="944.316864" lane="e0_0" slope="0.000000"/>
    </timestep>
    <timestep time="70.000">
        <vehicle id="veh0" x="958.462440" y="-1.600000" angle="90.000000" type="hetero" speed="14.145576" pos="958.462440" lane="e0_0" slope="0.000000"/>
    </timestep>
    <timestep time="71.000">
        <vehicle id="veh0" x="972.608016" y="-1.600000" angle="90.000000" type="hetero" speed="14.145576" pos="972.608016" lane="e0_0" slope="0.000000"/>
    </timestep>
    <timestep time="72.000">
        <vehicle id="veh0" x="986.753592" y="-1.600000" angle="90.000000" type="hetero" speed="14.145576" pos="986.753592" lane="e0_0" slope="0.000000"/>
    </timestep>
    <timestep time="73.000">
        <vehicle id="veh0" x="1000.899168" y="-1.600000" angle="90.000000" type="hetero" speed="14.145576" pos="1000.899168" lane="e0_0" slope="0.000000"/>
    </timestep>
    <timestep time="74.000">
        <vehicle id="veh0" x="1015.044744" y="-1.600000" angle="90.000000" type="hetero" speed="14.145576" pos="1015.044744" lane="e0_0" slope="0.000000"/>
    </timestep>
    <timestep time="75.000">
        <vehicle id="veh0" x="1029.190320" y="-1.600000" angle="90.000000" type="hetero" speed="14.145576" pos="1029.190320" lane="e0_0" slope="0.000000"/>
    </timestep>
    <timestep time="76.000">
        <vehicle id="veh0" x="1043.335896" y="-1.600000" angle="90.000000" type="hetero" speed="14.145576" pos="1043.335896" lane="e0_0" slope="0.000000"/>
    </timestep>
    <timestep time="77.000">
        <vehicle id="veh0" x="1057.481472" y="-1.600000" angle="90.000000" type="hetero" speed="14.145576" pos="1057.481472" lane="e0_0" slope="0.000000"/>
    </timestep>
    <timestep time="78.000">
        <vehicle id="veh0" x="1071.627048" y="-1.600000" angle="90.000000" type="hetero" speed="14.145576" pos="1071.627048" lane="e0_0" slope="0.000000"/>
    </timestep>
    <timestep time="79.000">
        <vehicle id="veh0" x="1085.772624" y="-1.600000" angle="90.000000" type="hetero" speed="14.145576" pos="1085.772624" lane="e0_0" slope="0.000000"/>
    </timestep>
</fcd-export>
