<?xml version="1.0" encoding="UTF-8"?>

<!-- generated on 2026-07-08 04:00:14 by Eclipse SUMO sumo Version 1.20.0
<configuration xmlns:xsi="http://www.w3.org/2001/XMLSchema-instance" xsi:noNamespaceSchemaLocation="http://sumo.dlr.de/xsd/sumoConfiguration.xsd">

    <input>
        <net-file value="net.net.xml"/>
        <route-files value="rou.rou.xml"/>
    </input>

    <output>
        <precision value="6"/>
        <fcd-output value="golden.ensemble/seed23.fcd.xml"/>
    </output>

    <time>
        <begin value="0"/>
        <end value="80"/>
        <step-length value="1"/>
    </time>

    <processing>
        <step-method.ballistic value="false"/>
        <collision.action value="none"/>
        <time-to-teleport value="-1"/>
        <default.action-step-length value="1"/>
        <default.speeddev value="0.1"/>
    </processing>

    <report>
        <no-step-log value="true"/>
    </report>

    <random_number>
        <seed value="23"/>
    </random_number>

</configuration>
-->

<fcd-export xmlns:xsi="http://www.w3.org/2001/XMLSchema-instance" xsi:noNamespaceSchemaLocation="http://sumo.dlr.de/xsd/fcd_file.xsd">
    <timestep time="0.000">
        <vehicle id="veh0" x="0.000000" y="-1.600000" angle="90.000000" type="hetero" speed="0.000000" pos="0.000000" lane="e0_0" slope="0.000000"/>
    </timestep>
    <timestep time="1.000">
        <vehicle id="veh0" x="2.600000" y="-1.600000" angle="90.000000" type="hetero" speed="2.600000" pos="2.600000" lane="e0_0" slope="0.000000"/>
    </timestep>
    <timestep time="2.000">
        <vehicle id="veh0" x="7.800000" y="-1.600000" angle="90.000000" type="hetero" speed="5.200000" pos="7.800000" lane="e0_0" slope="0.000000"/>
    </timestep>
    <timestep time="3.000">
        <vehicle id="veh0" x="15.600000" y="-1.600000" angle="90.000000" type="hetero" speed="7.800000" pos="15.600000" lane="e0_0" slope="0.000000"/>
    </timestep>
    <timestep time="4.000">
        <vehicle id="veh0" x="26.000000" y="-1.600000" angle="90.000000" type="hetero" speed="10.400000" pos="26.000000" lane="e0_0" slope="0.000000"/>
    </timestep>
    <timestep time="5.000">
        <vehicle id="veh0" x="39.000000" y="-1.600000" angle="90.000000" type="hetero" speed="13.000000" pos="39.000000" lane="e0_0" slope="0.000000"/>
    </timestep>
    <timestep time="6.000">
        <vehicle id="veh0" x="53.183079" y="-1.600000" angle="90.000000" type="hetero" speed="14.183079" pos="53.183079" lane="e0_0" slope="0.000000"/>
    </timestep>
    <timestep time="7.000">
        <vehicle id="veh0" x="67.366158" y="-1.600000" angle="90.000000" type="hetero" speed="14.183079" pos="67.366158" lane="e0_0" slope="0.000000"/>
    </timestep>
    <timestep time="8.000">
        <vehicle id="veh0" x="81.549237" y="-1.600000" angle="90.000000" type="hetero" speed="14.183079" pos="81.549237" lane="e0_0" slope="0.000000"/>
    </timestep>
    <timestep time="9.000">
        <vehicle id="veh0" x="95.732316" y="-1.600000" angle="90.000000" type="hetero" speed="14.183079" pos="95.732316" lane="e0_0" slope="0.000000"/>
    </timestep>
    <timestep time="10.000">
        <vehicle id="veh0" x="109.915395" y="-1.600000" angle="90.000000" type="hetero" speed="14.183079" pos="109.915395" lane="e0_0" slope="0.000000"/>
    </timestep>
    <timestep time="11.000">
        <vehicle id="veh0" x="124.098474" y="-1.600000" angle="90.000000" type="hetero" speed="14.183079" pos="124.098474" lane="e0_0" slope="0.000000"/>
    </timestep>
    <timestep time="12.000">
        <vehicle id="veh0" x="138.281553" y="-1.600000" angle="90.000000" type="hetero" speed="14.183079" pos="138.281553" lane="e0_0" slope="0.000000"/>
    </timestep>
    <timestep time="13.000">
        <vehicle id="veh0" x="152.464632" y="-1.600000" angle="90.000000" type="hetero" speed="14.183079" pos="152.464632" lane="e0_0" slope="0.000000"/>
    </timestep>
    <timestep time="14.000">
        <vehicle id="veh0" x="166.647711" y="-1.600000" angle="90.000000" type="hetero" speed="14.183079" pos="166.647711" lane="e0_0" slope="0.000000"/>
    </timestep>
    <timestep time="15.000">
        <vehicle id="veh0" x="180.830790" y="-1.600000" angle="90.000000" type="hetero" speed="14.183079" pos="180.830790" lane="e0_0" slope="0.000000"/>
    </timestep>
    <timestep time="16.000">
        <vehicle id="veh0" x="195.013869" y="-1.600000" angle="90.000000" type="hetero" speed="14.183079" pos="195.013869" lane="e0_0" slope="0.000000"/>
    </timestep>
    <timestep time="17.000">
        <vehicle id="veh0" x="209.196948" y="-1.600000" angle="90.000000" type="hetero" speed="14.183079" pos="209.196948" lane="e0_0" slope="0.000000"/>
    </timestep>
    <timestep time="18.000">
        <vehicle id="veh0" x="223.380027" y="-1.600000" angle="90.000000" type="hetero" speed="14.183079" pos="223.380027" lane="e0_0" slope="0.000000"/>
    </timestep>
    <timestep time="19.000">
        <vehicle id="veh0" x="237.563106" y="-1.600000" angle="90.000000" type="hetero" speed="14.183079" pos="237.563106" lane="e0_0" slope="0.000000"/>
    </timestep>
    <timestep time="20.000">
        <vehicle id="veh0" x="251.746185" y="-1.600000" angle="90.000000" type="hetero" speed="14.183079" pos="251.746185" lane="e0_0" slope="0.000000"/>
    </timestep>
    <timestep time="21.000">
        <vehicle id="veh0" x="265.929264" y="-1.600000" angle="90.000000" type="hetero" speed="14.183079" pos="265.929264" lane="e0_0" slope="0.000000"/>
    </timestep>
    <timestep time="22.000">
        <vehicle id="veh0" x="280.112343" y="-1.600000" angle="90.000000" type="hetero" speed="14.183079" pos="280.112343" lane="e0_0" slope="0.000000"/>
    </timestep>
    <timestep time="23.000">
        <vehicle id="veh0" x="294.295422" y="-1.600000" angle="90.000000" type="hetero" speed="14.183079" pos="294.295422" lane="e0_0" slope="0.000000"/>
    </timestep>
    <timestep time="24.000">
        <vehicle id="veh0" x="308.478501" y="-1.600000" angle="90.000000" type="hetero" speed="14.183079" pos="308.478501" lane="e0_0" slope="0.000000"/>
    </timestep>
    <timestep time="25.000">
        <vehicle id="veh0" x="322.661580" y="-1.600000" angle="90.000000" type="hetero" speed="14.183079" pos="322.661580" lane="e0_0" slope="0.000000"/>
    </timestep>
    <timestep time="26.000">
        <vehicle id="veh0" x="336.844659" y="-1.600000" angle="90.000000" type="hetero" speed="14.183079" pos="336.844659" lane="e0_0" slope="0.000000"/>
    </timestep>
    <timestep time="27.000">
        <vehicle id="veh0" x="351.027738" y="-1.600000" angle="90.000000" type="hetero" speed="14.183079" pos="351.027738" lane="e0_0" slope="0.000000"/>
    </timestep>
    <timestep time="28.000">
        <vehicle id="veh0" x="365.210817" y="-1.600000" angle="90.000000" type="hetero" speed="14.183079" pos="365.210817" lane="e0_0" slope="0.000000"/>
    </timestep>
    <timestep time="29.000">
        <vehicle id="veh0" x="379.393896" y="-1.600000" angle="90.000000" type="hetero" speed="14.183079" pos="379.393896" lane="e0_0" slope="0.000000"/>
    </timestep>
    <timestep time="30.000">
        <vehicle id="veh0" x="393.576975" y="-1.600000" angle="90.000000" type="hetero" speed="14.183079" pos="393.576975" lane="e0_0" slope="0.000000"/>
    </timestep>
    <timestep time="31.000">
        <vehicle id="veh0" x="407.760054" y="-1.600000" angle="90.000000" type="hetero" speed="14.183079" pos="407.760054" lane="e0_0" slope="0.000000"/>
    </timestep>
    <timestep time="32.000">
        <vehicle id="veh0" x="421.943133" y="-1.600000" angle="90.000000" type="hetero" speed="14.183079" pos="421.943133" lane="e0_0" slope="0.000000"/>
    </timestep>
    <timestep time="33.000">
        <vehicle id="veh0" x="436.126212" y="-1.600000" angle="90.000000" type="hetero" speed="14.183079" pos="436.126212" lane="e0_0" slope="0.000000"/>
    </timestep>
    <timestep time="34.000">
        <vehicle id="veh0" x="450.309291" y="-1.600000" angle="90.000000" type="hetero" speed="14.183079" pos="450.309291" lane="e0_0" slope="0.000000"/>
    </timestep>
    <timestep time="35.000">
        <vehicle id="veh0" x="464.492370" y="-1.600000" angle="90.000000" type="hetero" speed="14.183079" pos="464.492370" lane="e0_0" slope="0.000000"/>
    </timestep>
    <timestep time="36.000">
        <vehicle id="veh0" x="478.675449" y="-1.600000" angle="90.000000" type="hetero" speed="14.183079" pos="478.675449" lane="e0_0" slope="0.000000"/>
    </timestep>
    <timestep time="37.000">
        <vehicle id="veh0" x="492.858528" y="-1.600000" angle="90.000000" type="hetero" speed="14.183079" pos="492.858528" lane="e0_0" slope="0.000000"/>
    </timestep>
    <timestep time="38.000">
        <vehicle id="veh0" x="507.041607" y="-1.600000" angle="90.000000" type="hetero" speed="14.183079" pos="507.041607" lane="e0_0" slope="0.000000"/>
    </timestep>
    <timestep time="39.000">
        <vehicle id="veh0" x="521.224686" y="-1.600000" angle="90.000000" type="hetero" speed="14.183079" pos="521.224686" lane="e0_0" slope="0.000000"/>
    </timestep>
    <timestep time="40.000">
        <vehicle id="veh0" x="535.407765" y="-1.600000" angle="90.000000" type="hetero" speed="14.183079" pos="535.407765" lane="e0_0" slope="0.000000"/>
    </timestep>
    <timestep time="41.000">
        <vehicle id="veh0" x="549.590844" y="-1.600000" angle="90.000000" type="hetero" speed="14.183079" pos="549.590844" lane="e0_0" slope="0.000000"/>
    </timestep>
    <timestep time="42.000">
        <vehicle id="veh0" x="563.773923" y="-1.600000" angle="90.000000" type="hetero" speed="14.183079" pos="563.773923" lane="e0_0" slope="0.000000"/>
    </timestep>
    <timestep time="43.000">
        <vehicle id="veh0" x="577.957002" y="-1.600000" angle="90.000000" type="hetero" speed="14.183079" pos="577.957002" lane="e0_0" slope="0.000000"/>
    </timestep>
    <timestep time="44.000">
        <vehicle id="veh0" x="592.140081" y="-1.600000" angle="90.000000" type="hetero" speed="14.183079" pos="592.140081" lane="e0_0" slope="0.000000"/>
    </timestep>
    <timestep time="45.000">
        <vehicle id="veh0" x="606.323160" y="-1.600000" angle="90.000000" type="hetero" speed="14.183079" pos="606.323160" lane="e0_0" slope="0.000000"/>
    </timestep>
    <timestep time="46.000">
        <vehicle id="veh0" x="620.506239" y="-1.600000" angle="90.000000" type="hetero" speed="14.183079" pos="620.506239" lane="e0_0" slope="0.000000"/>
    </timestep>
    <timestep time="47.000">
        <vehicle id="veh0" x="634.689318" y="-1.600000" angle="90.000000" type="hetero" speed="14.183079" pos="634.689318" lane="e0_0" slope="0.000000"/>
    </timestep>
    <timestep time="48.000">
        <vehicle id="veh0" x="648.872397" y="-1.600000" angle="90.000000" type="hetero" speed="14.183079" pos="648.872397" lane="e0_0" slope="0.000000"/>
    </timestep>
    <timestep time="49.000">
        <vehicle id="veh0" x="663.055476" y="-1.600000" angle="90.000000" type="hetero" speed="14.183079" pos="663.055476" lane="e0_0" slope="0.000000"/>
    </timestep>
    <timestep time="50.000">
        <vehicle id="veh0" x="677.238555" y="-1.600000" angle="90.000000" type="hetero" speed="14.183079" pos="677.238555" lane="e0_0" slope="0.000000"/>
    </timestep>
    <timestep time="51.000">
        <vehicle id="veh0" x="691.421634" y="-1.600000" angle="90.000000" type="hetero" speed="14.183079" pos="691.421634" lane="e0_0" slope="0.000000"/>
    </timestep>
    <timestep time="52.000">
        <vehicle id="veh0" x="705.604713" y="-1.600000" angle="90.000000" type="hetero" speed="14.183079" pos="705.604713" lane="e0_0" slope="0.000000"/>
    </timestep>
    <timestep time="53.000">
        <vehicle id="veh0" x="719.787792" y="-1.600000" angle="90.000000" type="hetero" speed="14.183079" pos="719.787792" lane="e0_0" slope="0.000000"/>
    </timestep>
    <timestep time="54.000">
        <vehicle id="veh0" x="733.970871" y="-1.600000" angle="90.000000" type="hetero" speed="14.183079" pos="733.970871" lane="e0_0" slope="0.000000"/>
    </timestep>
    <timestep time="55.000">
        <vehicle id="veh0" x="748.153950" y="-1.600000" angle="90.000000" type="hetero" speed="14.183079" pos="748.153950" lane="e0_0" slope="0.000000"/>
    </timestep>
    <timestep time="56.000">
        <vehicle id="veh0" x="762.337029" y="-1.600000" angle="90.000000" type="hetero" speed="14.183079" pos="762.337029" lane="e0_0" slope="0.000000"/>
    </timestep>
    <timestep time="57.000">
        <vehicle id="veh0" x="776.520108" y="-1.600000" angle="90.000000" type="hetero" speed="14.183079" pos="776.520108" lane="e0_0" slope="0.000000"/>
    </timestep>
    <timestep time="58.000">
        <vehicle id="veh0" x="790.703187" y="-1.600000" angle="90.000000" type="hetero" speed="14.183079" pos="790.703187" lane="e0_0" slope="0.000000"/>
    </timestep>
    <timestep time="59.000">
        <vehicle id="veh0" x="804.886266" y="-1.600000" angle="90.000000" type="hetero" speed="14.183079" pos="804.886266" lane="e0_0" slope="0.000000"/>
    </timestep>
    <timestep time="60.000">
        <vehicle id="veh0" x="819.069345" y="-1.600000" angle="90.000000" type="hetero" speed="14.183079" pos="819.069345" lane="e0_0" slope="0.000000"/>
    </timestep>
    <timestep time="61.000">
        <vehicle id="veh0" x="833.252424" y="-1.600000" angle="90.000000" type="hetero" speed="14.183079" pos="833.252424" lane="e0_0" slope="0.000000"/>
    </timestep>
    <timestep time="62.000">
        <vehicle id="veh0" x="847.435503" y="-1.600000" angle="90.000000" type="hetero" speed="14.183079" pos="847.435503" lane="e0_0" slope="0.000000"/>
    </timestep>
    <timestep time="63.000">
        <vehicle id="veh0" x="861.618582" y="-1.600000" angle="90.000000" type="hetero" speed="14.183079" pos="861.618582" lane="e0_0" slope="0.000000"/>
    </timestep>
    <timestep time="64.000">
        <vehicle id="veh0" x="875.801661" y="-1.600000" angle="90.000000" type="hetero" speed="14.183079" pos="875.801661" lane="e0_0" slope="0.000000"/>
    </timestep>
    <timestep time="65.000">
        <vehicle id="veh0" x="889.984740" y="-1.600000" angle="90.000000" type="hetero" speed="14.183079" pos="889.984740" lane="e0_0" slope="0.000000"/>
    </timestep>
    <timestep time="66.000">
        <vehicle id="veh0" x="904.167819" y="-1.600000" angle="90.000000" type="hetero" speed="14.183079" pos="904.167819" lane="e0_0" slope="0.000000"/>
    </timestep>
    <timestep time="67.000">
        <vehicle id="veh0" x="918.350898" y="-1.600000" angle="90.000000" type="hetero" speed="14.183079" pos="918.350898" lane="e0_0" slope="0.000000"/>
    </timestep>
    <timestep time="68.000">
        <vehicle id="veh0" x="932.533977" y="-1.600000" angle="90.000000" type="hetero" speed="14.183079" pos="932.533977" lane="e0_0" slope="0.000000"/>
    </timestep>
    <timestep time="69.000">
        <vehicle id="veh0" x="946.717056" y="-1.600000" angle="90.000000" type="hetero" speed="14.183079" pos="946.717056" lane="e0_0" slope="0.000000"/>
    </timestep>
    <timestep time="70.000">
        <vehicle id="veh0" x="960.900135" y="-1.600000" angle="90.000000" type="hetero" speed="14.183079" pos="960.900135" lane="e0_0" slope="0.000000"/>
    </timestep>
    <timestep time="71.000">
        <vehicle id="veh0" x="975.083214" y="-1.600000" angle="90.000000" type="hetero" speed="14.183079" pos="975.083214" lane="e0_0" slope="0.000000"/>
    </timestep>
    <timestep time="72.000">
        <vehicle id="veh0" x="989.266293" y="-1.600000" angle="90.000000" type="hetero" speed="14.183079" pos="989.266293" lane="e0_0" slope="0.000000"/>
    </timestep>
    <timestep time="73.000">
        <vehicle id="veh0" x="1003.449372" y="-1.600000" angle="90.000000" type="hetero" speed="14.183079" pos="1003.449372" lane="e0_0" slope="0.000000"/>
    </timestep>
    <timestep time="74.000">
        <vehicle id="veh0" x="1017.632451" y="-1.600000" angle="90.000000" type="hetero" speed="14.183079" pos="1017.632451" lane="e0_0" slope="0.000000"/>
    </timestep>
    <timestep time="75.000">
        <vehicle id="veh0" x="1031.815530" y="-1.600000" angle="90.000000" type="hetero" speed="14.183079" pos="1031.815530" lane="e0_0" slope="0.000000"/>
    </timestep>
    <timestep time="76.000">
        <vehicle id="veh0" x="1045.998609" y="-1.600000" angle="90.000000" type="hetero" speed="14.183079" pos="1045.998609" lane="e0_0" slope="0.000000"/>
    </timestep>
    <timestep time="77.000">
        <vehicle id="veh0" x="1060.181688" y="-1.600000" angle="90.000000" type="hetero" speed="14.183079" pos="1060.181688" lane="e0_0" slope="0.000000"/>
    </timestep>
    <timestep time="78.000">
        <vehicle id="veh0" x="1074.364767" y="-1.600000" angle="90.000000" type="hetero" speed="14.183079" pos="1074.364767" lane="e0_0" slope="0.000000"/>
    </timestep>
    <timestep time="79.000">
        <vehicle id="veh0" x="1088.547846" y="-1.600000" angle="90.000000" type="hetero" speed="14.183079" pos="1088.547846" lane="e0_0" slope="0.000000"/>
    </timestep>
</fcd-export>
