<?xml version="1.0" encoding="UTF-8"?>

<!-- generated on 2026-07-08 04:00:16 by Eclipse SUMO sumo Version 1.20.0
<configuration xmlns:xsi="http://www.w3.org/2001/XMLSchema-instance" xsi:noNamespaceSchemaLocation="http://sumo.dlr.de/xsd/sumoConfiguration.xsd">

    <input>
        <net-file value="net.net.xml"/>
        <route-files value="rou.rou.xml"/>
    </input>

    <output>
        <precision value="6"/>
        <fcd-output value="golden.ensemble/seed43.fcd.xml"/>
    </output>

    <time>
        <begin value="0"/>
        <end value="80"/>
        <step-length value="1"/>
    </time>

    <processing>
        <step-method.ballistic value="false"/>
        <collision.action value="none"/>
        <time-to-teleport value="-1"/>
        <default.action-step-length value="1"/>
        <default.speeddev value="0.1"/>
    </processing>

    <report>
        <no-step-log value="true"/>
    </report>

    <random_number>
        <seed value="43"/>
    </random_number>

</configuration>
-->

<fcd-export xmlns:xsi="http://www.w3.org/2001/XMLSchema-instance" xsi:noNamespaceSchemaLocation="http://sumo.dlr.de/xsd/fcd_file.xsd">
    <timestep time="0.000">
        <vehicle id="veh0" x="0.000000" y="-1.600000" angle="90.000000" type="hetero" speed="0.000000" pos="0.000000" lane="e0_0" slope="0.000000"/>
    </timestep>
    <timestep time="1.000">
        <vehicle id="veh0" x="2.600000" y="-1.600000" angle="90.000000" type="hetero" speed="2.600000" pos="2.600000" lane="e0_0" slope="0.000000"/>
    </timestep>
    <timestep time="2.000">
        <vehicle id="veh0" x="7.800000" y="-1.600000" angle="90.000000" type="hetero" speed="5.200000" pos="7.800000" lane="e0_0" slope="0.000000"/>
    </timestep>
    <timestep time="3.000">
        <vehicle id="veh0" x="15.600000" y="-1.600000" angle="90.000000" type="hetero" speed="7.800000" pos="15.600000" lane="e0_0" slope="0.000000"/>
    </timestep>
    <timestep time="4.000">
        <vehicle id="veh0" x="26.000000" y="-1.600000" angle="90.000000" type="hetero" speed="10.400000" pos="26.000000" lane="e0_0" slope="0.000000"/>
    </timestep>
    <timestep time="5.000">
        <vehicle id="veh0" x="38.469053" y="-1.600000" angle="90.000000" type="hetero" speed="12.469053" pos="38.469053" lane="e0_0" slope="0.000000"/>
    </timestep>
    <timestep time="6.000">
        <vehicle id="veh0" x="50.938106" y="-1.600000" angle="90.000000" type="hetero" speed="12.469053" pos="50.938106" lane="e0_0" slope="0.000000"/>
    </timestep>
    <timestep time="7.000">
        <vehicle id="veh0" x="63.407159" y="-1.600000" angle="90.000000" type="hetero" speed="12.469053" pos="63.407159" lane="e0_0" slope="0.000000"/>
    </timestep>
    <timestep time="8.000">
        <vehicle id="veh0" x="75.876212" y="-1.600000" angle="90.000000" type="hetero" speed="12.469053" pos="75.876212" lane="e0_0" slope="0.000000"/>
    </timestep>
    <timestep time="9.000">
        <vehicle id="veh0" x="88.345265" y="-1.600000" angle="90.000000" type="hetero" speed="12.469053" pos="88.345265" lane="e0_0" slope="0.000000"/>
    </timestep>
    <timestep time="10.000">
        <vehicle id="veh0" x="100.814318" y="-1.600000" angle="90.000000" type="hetero" speed="12.469053" pos="100.814318" lane="e0_0" slope="0.000000"/>
    </timestep>
    <timestep time="11.000">
        <vehicle id="veh0" x="113.283371" y="-1.600000" angle="90.000000" type="hetero" speed="12.469053" pos="113.283371" lane="e0_0" slope="0.000000"/>
    </timestep>
    <timestep time="12.000">
        <vehicle id="veh0" x="125.752424" y="-1.600000" angle="90.000000" type="hetero" speed="12.469053" pos="125.752424" lane="e0_0" slope="0.000000"/>
    </timestep>
    <timestep time="13.000">
        <vehicle id="veh0" x="138.221477" y="-1.600000" angle="90.000000" type="hetero" speed="12.469053" pos="138.221477" lane="e0_0" slope="0.000000"/>
    </timestep>
    <timestep time="14.000">
        <vehicle id="veh0" x="150.690530" y="-1.600000" angle="90.000000" type="hetero" speed="12.469053" pos="150.690530" lane="e0_0" slope="0.000000"/>
    </timestep>
    <timestep time="15.000">
        <vehicle id="veh0" x="163.159583" y="-1.600000" angle="90.000000" type="hetero" speed="12.469053" pos="163.159583" lane="e0_0" slope="0.000000"/>
    </timestep>
    <timestep time="16.000">
        <vehicle id="veh0" x="175.628636" y="-1.600000" angle="90.000000" type="hetero" speed="12.469053" pos="175.628636" lane="e0_0" slope="0.000000"/>
    </timestep>
    <timestep time="17.000">
        <vehicle id="veh0" x="188.097689" y="-1.600000" angle="90.000000" type="hetero" speed="12.469053" pos="188.097689" lane="e0_0" slope="0.000000"/>
    </timestep>
    <timestep time="18.000">
        <vehicle id="veh0" x="200.566742" y="-1.600000" angle="90.000000" type="hetero" speed="12.469053" pos="200.566742" lane="e0_0" slope="0.000000"/>
    </timestep>
    <timestep time="19.000">
        <vehicle id="veh0" x="213.035795" y="-1.600000" angle="90.000000" type="hetero" speed="12.469053" pos="213.035795" lane="e0_0" slope="0.000000"/>
    </timestep>
    <timestep time="20.000">
        <vehicle id="veh0" x="225.504848" y="-1.600000" angle="90.000000" type="hetero" speed="12.469053" pos="225.504848" lane="e0_0" slope="0.000000"/>
    </timestep>
    <timestep time="21.000">
        <vehicle id="veh0" x="237.973901" y="-1.600000" angle="90.000000" type="hetero" speed="12.469053" pos="237.973901" lane="e0_0" slope="0.000000"/>
    </timestep>
    <timestep time="22.000">
        <vehicle id="veh0" x="250.442954" y="-1.600000" angle="90.000000" type="hetero" speed="12.469053" pos="250.442954" lane="e0_0" slope="0.000000"/>
    </timestep>
    <timestep time="23.000">
        <vehicle id="veh0" x="262.912007" y="-1.600000" angle="90.000000" type="hetero" speed="12.469053" pos="262.912007" lane="e0_0" slope="0.000000"/>
    </timestep>
    <timestep time="24.000">
        <vehicle id="veh0" x="275.381060" y="-1.600000" angle="90.000000" type="hetero" speed="12.469053" pos="275.381060" lane="e0_0" slope="0.000000"/>
    </timestep>
    <timestep time="25.000">
        <vehicle id="veh0" x="287.850113" y="-1.600000" angle="90.000000" type="hetero" speed="12.469053" pos="287.850113" lane="e0_0" slope="0.000000"/>
    </timestep>
    <timestep time="26.000">
        <vehicle id="veh0" x="300.319166" y="-1.600000" angle="90.000000" type="hetero" speed="12.469053" pos="300.319166" lane="e0_0" slope="0.000000"/>
    </timestep>
    <timestep time="27.000">
        <vehicle id="veh0" x="312.788219" y="-1.600000" angle="90.000000" type="hetero" speed="12.469053" pos="312.788219" lane="e0_0" slope="0.000000"/>
    </timestep>
    <timestep time="28.000">
        <vehicle id="veh0" x="325.257272" y="-1.600000" angle="90.000000" type="hetero" speed="12.469053" pos="325.257272" lane="e0_0" slope="0.000000"/>
    </timestep>
    <timestep time="29.000">
        <vehicle id="veh0" x="337.726325" y="-1.600000" angle="90.000000" type="hetero" speed="12.469053" pos="337.726325" lane="e0_0" slope="0.000000"/>
    </timestep>
    <timestep time="30.000">
        <vehicle id="veh0" x="350.195378" y="-1.600000" angle="90.000000" type="hetero" speed="12.469053" pos="350.195378" lane="e0_0" slope="0.000000"/>
    </timestep>
    <timestep time="31.000">
        <vehicle id="veh0" x="362.664431" y="-1.600000" angle="90.000000" type="hetero" speed="12.469053" pos="362.664431" lane="e0_0" slope="0.000000"/>
    </timestep>
    <timestep time="32.000">
        <vehicle id="veh0" x="375.133484" y="-1.600000" angle="90.000000" type="hetero" speed="12.469053" pos="375.133484" lane="e0_0" slope="0.000000"/>
    </timestep>
    <timestep time="33.000">
        <vehicle id="veh0" x="387.602537" y="-1.600000" angle="90.000000" type="hetero" speed="12.469053" pos="387.602537" lane="e0_0" slope="0.000000"/>
    </timestep>
    <timestep time="34.000">
        <vehicle id="veh0" x="400.071590" y="-1.600000" angle="90.000000" type="hetero" speed="12.469053" pos="400.071590" lane="e0_0" slope="0.000000"/>
    </timestep>
    <timestep time="35.000">
        <vehicle id="veh0" x="412.540643" y="-1.600000" angle="90.000000" type="hetero" speed="12.469053" pos="412.540643" lane="e0_0" slope="0.000000"/>
    </timestep>
    <timestep time="36.000">
        <vehicle id="veh0" x="425.009696" y="-1.600000" angle="90.000000" type="hetero" speed="12.469053" pos="425.009696" lane="e0_0" slope="0.000000"/>
    </timestep>
    <timestep time="37.000">
        <vehicle id="veh0" x="437.478749" y="-1.600000" angle="90.000000" type="hetero" speed="12.469053" pos="437.478749" lane="e0_0" slope="0.000000"/>
    </timestep>
    <timestep time="38.000">
        <vehicle id="veh0" x="449.947802" y="-1.600000" angle="90.000000" type="hetero" speed="12.469053" pos="449.947802" lane="e0_0" slope="0.000000"/>
    </timestep>
    <timestep time="39.000">
        <vehicle id="veh0" x="462.416855" y="-1.600000" angle="90.000000" type="hetero" speed="12.469053" pos="462.416855" lane="e0_0" slope="0.000000"/>
    </timestep>
    <timestep time="40.000">
        <vehicle id="veh0" x="474.885908" y="-1.600000" angle="90.000000" type="hetero" speed="12.469053" pos="474.885908" lane="e0_0" slope="0.000000"/>
    </timestep>
    <timestep time="41.000">
        <vehicle id="veh0" x="487.354961" y="-1.600000" angle="90.000000" type="hetero" speed="12.469053" pos="487.354961" lane="e0_0" slope="0.000000"/>
    </timestep>
    <timestep time="42.000">
        <vehicle id="veh0" x="499.824014" y="-1.600000" angle="90.000000" type="hetero" speed="12.469053" pos="499.824014" lane="e0_0" slope="0.000000"/>
    </timestep>
    <timestep time="43.000">
        <vehicle id="veh0" x="512.293067" y="-1.600000" angle="90.000000" type="hetero" speed="12.469053" pos="512.293067" lane="e0_0" slope="0.000000"/>
    </timestep>
    <timestep time="44.000">
        <vehicle id="veh0" x="524.762120" y="-1.600000" angle="90.000000" type="hetero" speed="12.469053" pos="524.762120" lane="e0_0" slope="0.000000"/>
    </timestep>
    <timestep time="45.000">
        <vehicle id="veh0" x="537.231173" y="-1.600000" angle="90.000000" type="hetero" speed="12.469053" pos="537.231173" lane="e0_0" slope="0.000000"/>
    </timestep>
    <timestep time="46.000">
        <vehicle id="veh0" x="549.700226" y="-1.600000" angle="90.000000" type="hetero" speed="12.469053" pos="549.700226" lane="e0_0" slope="0.000000"/>
    </timestep>
    <timestep time="47.000">
        <vehicle id="veh0" x="562.169279" y="-1.600000" angle="90.000000" type="hetero" speed="12.469053" pos="562.169279" lane="e0_0" slope="0.000000"/>
    </timestep>
    <timestep time="48.000">
        <vehicle id="veh0" x="574.638332" y="-1.600000" angle="90.000000" type="hetero" speed="12.469053" pos="574.638332" lane="e0_0" slope="0.000000"/>
    </timestep>
    <timestep time="49.000">
        <vehicle id="veh0" x="587.107385" y="-1.600000" angle="90.000000" type="hetero" speed="12.469053" pos="587.107385" lane="e0_0" slope="0.000000"/>
    </timestep>
    <timestep time="50.000">
        <vehicle id="veh0" x="599.576438" y="-1.600000" angle="90.000000" type="hetero" speed="12.469053" pos="599.576438" lane="e0_0" slope="0.000000"/>
    </timestep>
    <timestep time="51.000">
        <vehicle id="veh0" x="612.045491" y="-1.600000" angle="90.000000" type="hetero" speed="12.469053" pos="612.045491" lane="e0_0" slope="0.000000"/>
    </timestep>
    <timestep time="52.000">
        <vehicle id="veh0" x="624.514544" y="-1.600000" angle="90.000000" type="hetero" speed="12.469053" pos="624.514544" lane="e0_0" slope="0.000000"/>
    </timestep>
    <timestep time="53.000">
        <vehicle id="veh0" x="636.983597" y="-1.600000" angle="90.000000" type="hetero" speed="12.469053" pos="636.983597" lane="e0_0" slope="0.000000"/>
    </timestep>
    <timestep time="54.000">
        <vehicle id="veh0" x="649.452650" y="-1.600000" angle="90.000000" type="hetero" speed="12.469053" pos="649.452650" lane="e0_0" slope="0.000000"/>
    </timestep>
    <timestep time="55.000">
        <vehicle id="veh0" x="661.921703" y="-1.600000" angle="90.000000" type="hetero" speed="12.469053" pos="661.921703" lane="e0_0" slope="0.000000"/>
    </timestep>
    <timestep time="56.000">
        <vehicle id="veh0" x="674.390756" y="-1.600000" angle="90.000000" type="hetero" speed="12.469053" pos="674.390756" lane="e0_0" slope="0.000000"/>
    </timestep>
    <timestep time="57.000">
        <vehicle id="veh0" x="686.859809" y="-1.600000" angle="90.000000" type="hetero" speed="12.469053" pos="686.859809" lane="e0_0" slope="0.000000"/>
    </timestep>
    <timestep time="58.000">
        <vehicle id="veh0" x="699.328862" y="-1.600000" angle="90.000000" type="hetero" speed="12.469053" pos="699.328862" lane="e0_0" slope="0.000000"/>
    </timestep>
    <timestep time="59.000">
        <vehicle id="veh0" x="711.797915" y="-1.600000" angle="90.000000" type="hetero" speed="12.469053" pos="711.797915" lane="e0_0" slope="0.000000"/>
    </timestep>
    <timestep time="60.000">
        <vehicle id="veh0" x="724.266968" y="-1.600000" angle="90.000000" type="hetero" speed="12.469053" pos="724.266968" lane="e0_0" slope="0.000000"/>
    </timestep>
    <timestep time="61.000">
        <vehicle id="veh0" x="736.736021" y="-1.600000" angle="90.000000" type="hetero" speed="12.469053" pos="736.736021" lane="e0_0" slope="0.000000"/>
    </timestep>
    <timestep time="62.000">
        <vehicle id="veh0" x="749.205074" y="-1.600000" angle="90.000000" type="hetero" speed="12.469053" pos="749.205074" lane="e0_0" slope="0.000000"/>
    </timestep>
    <timestep time="63.000">
        <vehicle id="veh0" x="761.674127" y="-1.600000" angle="90.000000" type="hetero" speed="12.469053" pos="761.674127" lane="e0_0" slope="0.000000"/>
    </timestep>
    <timestep time="64.000">
        <vehicle id="veh0" x="774.143180" y="-1.600000" angle="90.000000" type="hetero" speed="12.469053" pos="774.143180" lane="e0_0" slope="0.000000"/>
    </timestep>
    <timestep time="65.000">
        <vehicle id="veh0" x="786.612233" y="-1.600000" angle="90.000000" type="hetero" speed="12.469053" pos="786.612233" lane="e0_0" slope="0.000000"/>
    </timestep>
    <timestep time="66.000">
        <vehicle id="veh0" x="799.081286" y="-1.600000" angle="90.000000" type="hetero" speed="12.469053" pos="799.081286" lane="e0_0" slope="0.000000"/>
    </timestep>
    <timestep time="67.000">
        <vehicle id="veh0" x="811.550339" y="-1.600000" angle="90.000000" type="hetero" speed="12.469053" pos="811.550339" lane="e0_0" slope="0.000000"/>
    </timestep>
    <timestep time="68.000">
        <vehicle id="veh0" x="824.019392" y="-1.600000" angle="90.000000" type="hetero" speed="12.469053" pos="824.019392" lane="e0_0" slope="0.000000"/>
    </timestep>
    <timestep time="69.000">
        <vehicle id="veh0" x="836.488445" y="-1.600000" angle="90.000000" type="hetero" speed="12.469053" pos="836.488445" lane="e0_0" slope="0.000000"/>
    </timestep>
    <timestep time="70.000">
        <vehicle id="veh0" x="848.957498" y="-1.600000" angle="90.000000" type="hetero" speed="12.469053" pos="848.957498" lane="e0_0" slope="0.000000"/>
    </timestep>
    <timestep time="71.000">
        <vehicle id="veh0" x="861.426551" y="-1.600000" angle="90.000000" type="hetero" speed="12.469053" pos="861.426551" lane="e0_0" slope="0.000000"/>
    </timestep>
    <timestep time="72.000">
        <vehicle id="veh0" x="873.895604" y="-1.600000" angle="90.000000" type="hetero" speed="12.469053" pos="873.895604" lane="e0_0" slope="0.000000"/>
    </timestep>
    <timestep time="73.000">
        <vehicle id="veh0" x="886.364657" y="-1.600000" angle="90.000000" type="hetero" speed="12.469053" pos="886.364657" lane="e0_0" slope="0.000000"/>
    </timestep>
    <timestep time="74.000">
        <vehicle id="veh0" x="898.833710" y="-1.600000" angle="90.000000" type="hetero" speed="12.469053" pos="898.833710" lane="e0_0" slope="0.000000"/>
    </timestep>
    <timestep time="75.000">
        <vehicle id="veh0" x="911.302763" y="-1.600000" angle="90.000000" type="hetero" speed="12.469053" pos="911.302763" lane="e0_0" slope="0.000000"/>
    </timestep>
    <timestep time="76.000">
        <vehicle id="veh0" x="923.771816" y="-1.600000" angle="90.000000" type="hetero" speed="12.469053" pos="923.771816" lane="e0_0" slope="0.000000"/>
    </timestep>
    <timestep time="77.000">
        <vehicle id="veh0" x="936.240869" y="-1.600000" angle="90.000000" type="hetero" speed="12.469053" pos="936.240869" lane="e0_0" slope="0.000000"/>
    </timestep>
    <timestep time="78.000">
        <vehicle id="veh0" x="948.709922" y="-1.600000" angle="90.000000" type="hetero" speed="12.469053" pos="948.709922" lane="e0_0" slope="0.000000"/>
    </timestep>
    <timestep time="79.000">
        <vehicle id="veh0" x="961.178975" y="-1.600000" angle="90.000000" type="hetero" speed="12.469053" pos="961.178975" lane="e0_0" slope="0.000000"/>
    </timestep>
</fcd-export>
