<?xml version="1.0" encoding="UTF-8"?>

<!-- generated on 2026-07-08 04:00:15 by Eclipse SUMO sumo Version 1.20.0
<configuration xmlns:xsi="http://www.w3.org/2001/XMLSchema-instance" xsi:noNamespaceSchemaLocation="http://sumo.dlr.de/xsd/sumoConfiguration.xsd">

    <input>
        <net-file value="net.net.xml"/>
        <route-files value="rou.rou.xml"/>
    </input>

    <output>
        <precision value="6"/>
        <fcd-output value="golden.ensemble/seed28.fcd.xml"/>
    </output>

    <time>
        <begin value="0"/>
        <end value="80"/>
        <step-length value="1"/>
    </time>

    <processing>
        <step-method.ballistic value="false"/>
        <collision.action value="none"/>
        <time-to-teleport value="-1"/>
        <default.action-step-length value="1"/>
        <default.speeddev value="0.1"/>
    </processing>

    <report>
        <no-step-log value="true"/>
    </report>

    <random_number>
        <seed value="28"/>
    </random_number>

</configuration>
-->

<fcd-export xmlns:xsi="http://www.w3.org/2001/XMLSchema-instance" xsi:noNamespaceSchemaLocation="http://sumo.dlr.de/xsd/fcd_file.xsd">
    <timestep time="0.000">
        <vehicle id="veh0" x="0.000000" y="-1.600000" angle="90.000000" type="hetero" speed="0.000000" pos="0.000000" lane="e0_0" slope="0.000000"/>
    </timestep>
    <timestep time="1.000">
        <vehicle id="veh0" x="2.600000" y="-1.600000" angle="90.000000" type="hetero" speed="2.600000" pos="2.600000" lane="e0_0" slope="0.000000"/>
    </timestep>
    <timestep time="2.000">
        <vehicle id="veh0" x="7.800000" y="-1.600000" angle="90.000000" type="hetero" speed="5.200000" pos="7.800000" lane="e0_0" slope="0.000000"/>
    </timestep>
    <timestep time="3.000">
        <vehicle id="veh0" x="15.600000" y="-1.600000" angle="90.000000" type="hetero" speed="7.800000" pos="15.600000" lane="e0_0" slope="0.000000"/>
    </timestep>
    <timestep time="4.000">
        <vehicle id="veh0" x="26.000000" y="-1.600000" angle="90.000000" type="hetero" speed="10.400000" pos="26.000000" lane="e0_0" slope="0.000000"/>
    </timestep>
    <timestep time="5.000">
        <vehicle id="veh0" x="39.000000" y="-1.600000" angle="90.000000" type="hetero" speed="13.000000" pos="39.000000" lane="e0_0" slope="0.000000"/>
    </timestep>
    <timestep time="6.000">
        <vehicle id="veh0" x="53.635893" y="-1.600000" angle="90.000000" type="hetero" speed="14.635893" pos="53.635893" lane="e0_0" slope="0.000000"/>
    </timestep>
    <timestep time="7.000">
        <vehicle id="veh0" x="68.271786" y="-1.600000" angle="90.000000" type="hetero" speed="14.635893" pos="68.271786" lane="e0_0" slope="0.000000"/>
    </timestep>
    <timestep time="8.000">
        <vehicle id="veh0" x="82.907679" y="-1.600000" angle="90.000000" type="hetero" speed="14.635893" pos="82.907679" lane="e0_0" slope="0.000000"/>
    </timestep>
    <timestep time="9.000">
        <vehicle id="veh0" x="97.543572" y="-1.600000" angle="90.000000" type="hetero" speed="14.635893" pos="97.543572" lane="e0_0" slope="0.000000"/>
    </timestep>
    <timestep time="10.000">
        <vehicle id="veh0" x="112.179465" y="-1.600000" angle="90.000000" type="hetero" speed="14.635893" pos="112.179465" lane="e0_0" slope="0.000000"/>
    </timestep>
    <timestep time="11.000">
        <vehicle id="veh0" x="126.815358" y="-1.600000" angle="90.000000" type="hetero" speed="14.635893" pos="126.815358" lane="e0_0" slope="0.000000"/>
    </timestep>
    <timestep time="12.000">
        <vehicle id="veh0" x="141.451251" y="-1.600000" angle="90.000000" type="hetero" speed="14.635893" pos="141.451251" lane="e0_0" slope="0.000000"/>
    </timestep>
    <timestep time="13.000">
        <vehicle id="veh0" x="156.087144" y="-1.600000" angle="90.000000" type="hetero" speed="14.635893" pos="156.087144" lane="e0_0" slope="0.000000"/>
    </timestep>
    <timestep time="14.000">
        <vehicle id="veh0" x="170.723037" y="-1.600000" angle="90.000000" type="hetero" speed="14.635893" pos="170.723037" lane="e0_0" slope="0.000000"/>
    </timestep>
    <timestep time="15.000">
        <vehicle id="veh0" x="185.358930" y="-1.600000" angle="90.000000" type="hetero" speed="14.635893" pos="185.358930" lane="e0_0" slope="0.000000"/>
    </timestep>
    <timestep time="16.000">
        <vehicle id="veh0" x="199.994823" y="-1.600000" angle="90.000000" type="hetero" speed="14.635893" pos="199.994823" lane="e0_0" slope="0.000000"/>
    </timestep>
    <timestep time="17.000">
        <vehicle id="veh0" x="214.630716" y="-1.600000" angle="90.000000" type="hetero" speed="14.635893" pos="214.630716" lane="e0_0" slope="0.000000"/>
    </timestep>
    <timestep time="18.000">
        <vehicle id="veh0" x="229.266609" y="-1.600000" angle="90.000000" type="hetero" speed="14.635893" pos="229.266609" lane="e0_0" slope="0.000000"/>
    </timestep>
    <timestep time="19.000">
        <vehicle id="veh0" x="243.902502" y="-1.600000" angle="90.000000" type="hetero" speed="14.635893" pos="243.902502" lane="e0_0" slope="0.000000"/>
    </timestep>
    <timestep time="20.000">
        <vehicle id="veh0" x="258.538395" y="-1.600000" angle="90.000000" type="hetero" speed="14.635893" pos="258.538395" lane="e0_0" slope="0.000000"/>
    </timestep>
    <timestep time="21.000">
        <vehicle id="veh0" x="273.174288" y="-1.600000" angle="90.000000" type="hetero" speed="14.635893" pos="273.174288" lane="e0_0" slope="0.000000"/>
    </timestep>
    <timestep time="22.000">
        <vehicle id="veh0" x="287.810181" y="-1.600000" angle="90.000000" type="hetero" speed="14.635893" pos="287.810181" lane="e0_0" slope="0.000000"/>
    </timestep>
    <timestep time="23.000">
        <vehicle id="veh0" x="302.446074" y="-1.600000" angle="90.000000" type="hetero" speed="14.635893" pos="302.446074" lane="e0_0" slope="0.000000"/>
    </timestep>
    <timestep time="24.000">
        <vehicle id="veh0" x="317.081967" y="-1.600000" angle="90.000000" type="hetero" speed="14.635893" pos="317.081967" lane="e0_0" slope="0.000000"/>
    </timestep>
    <timestep time="25.000">
        <vehicle id="veh0" x="331.717860" y="-1.600000" angle="90.000000" type="hetero" speed="14.635893" pos="331.717860" lane="e0_0" slope="0.000000"/>
    </timestep>
    <timestep time="26.000">
        <vehicle id="veh0" x="346.353753" y="-1.600000" angle="90.000000" type="hetero" speed="14.635893" pos="346.353753" lane="e0_0" slope="0.000000"/>
    </timestep>
    <timestep time="27.000">
        <vehicle id="veh0" x="360.989646" y="-1.600000" angle="90.000000" type="hetero" speed="14.635893" pos="360.989646" lane="e0_0" slope="0.000000"/>
    </timestep>
    <timestep time="28.000">
        <vehicle id="veh0" x="375.625539" y="-1.600000" angle="90.000000" type="hetero" speed="14.635893" pos="375.625539" lane="e0_0" slope="0.000000"/>
    </timestep>
    <timestep time="29.000">
        <vehicle id="veh0" x="390.261432" y="-1.600000" angle="90.000000" type="hetero" speed="14.635893" pos="390.261432" lane="e0_0" slope="0.000000"/>
    </timestep>
    <timestep time="30.000">
        <vehicle id="veh0" x="404.897325" y="-1.600000" angle="90.000000" type="hetero" speed="14.635893" pos="404.897325" lane="e0_0" slope="0.000000"/>
    </timestep>
    <timestep time="31.000">
        <vehicle id="veh0" x="419.533218" y="-1.600000" angle="90.000000" type="hetero" speed="14.635893" pos="419.533218" lane="e0_0" slope="0.000000"/>
    </timestep>
    <timestep time="32.000">
        <vehicle id="veh0" x="434.169111" y="-1.600000" angle="90.000000" type="hetero" speed="14.635893" pos="434.169111" lane="e0_0" slope="0.000000"/>
    </timestep>
    <timestep time="33.000">
        <vehicle id="veh0" x="448.805004" y="-1.600000" angle="90.000000" type="hetero" speed="14.635893" pos="448.805004" lane="e0_0" slope="0.000000"/>
    </timestep>
    <timestep time="34.000">
        <vehicle id="veh0" x="463.440897" y="-1.600000" angle="90.000000" type="hetero" speed="14.635893" pos="463.440897" lane="e0_0" slope="0.000000"/>
    </timestep>
    <timestep time="35.000">
        <vehicle id="veh0" x="478.076790" y="-1.600000" angle="90.000000" type="hetero" speed="14.635893" pos="478.076790" lane="e0_0" slope="0.000000"/>
    </timestep>
    <timestep time="36.000">
        <vehicle id="veh0" x="492.712683" y="-1.600000" angle="90.000000" type="hetero" speed="14.635893" pos="492.712683" lane="e0_0" slope="0.000000"/>
    </timestep>
    <timestep time="37.000">
        <vehicle id="veh0" x="507.348576" y="-1.600000" angle="90.000000" type="hetero" speed="14.635893" pos="507.348576" lane="e0_0" slope="0.000000"/>
    </timestep>
    <timestep time="38.000">
        <vehicle id="veh0" x="521.984469" y="-1.600000" angle="90.000000" type="hetero" speed="14.635893" pos="521.984469" lane="e0_0" slope="0.000000"/>
    </timestep>
    <timestep time="39.000">
        <vehicle id="veh0" x="536.620362" y="-1.600000" angle="90.000000" type="hetero" speed="14.635893" pos="536.620362" lane="e0_0" slope="0.000000"/>
    </timestep>
    <timestep time="40.000">
        <vehicle id="veh0" x="551.256255" y="-1.600000" angle="90.000000" type="hetero" speed="14.635893" pos="551.256255" lane="e0_0" slope="0.000000"/>
    </timestep>
    <timestep time="41.000">
        <vehicle id="veh0" x="565.892148" y="-1.600000" angle="90.000000" type="hetero" speed="14.635893" pos="565.892148" lane="e0_0" slope="0.000000"/>
    </timestep>
    <timestep time="42.000">
        <vehicle id="veh0" x="580.528041" y="-1.600000" angle="90.000000" type="hetero" speed="14.635893" pos="580.528041" lane="e0_0" slope="0.000000"/>
    </timestep>
    <timestep time="43.000">
        <vehicle id="veh0" x="595.163934" y="-1.600000" angle="90.000000" type="hetero" speed="14.635893" pos="595.163934" lane="e0_0" slope="0.000000"/>
    </timestep>
    <timestep time="44.000">
        <vehicle id="veh0" x="609.799827" y="-1.600000" angle="90.000000" type="hetero" speed="14.635893" pos="609.799827" lane="e0_0" slope="0.000000"/>
    </timestep>
    <timestep time="45.000">
        <vehicle id="veh0" x="624.435720" y="-1.600000" angle="90.000000" type="hetero" speed="14.635893" pos="624.435720" lane="e0_0" slope="0.000000"/>
    </timestep>
    <timestep time="46.000">
        <vehicle id="veh0" x="639.071613" y="-1.600000" angle="90.000000" type="hetero" speed="14.635893" pos="639.071613" lane="e0_0" slope="0.000000"/>
    </timestep>
    <timestep time="47.000">
        <vehicle id="veh0" x="653.707506" y="-1.600000" angle="90.000000" type="hetero" speed="14.635893" pos="653.707506" lane="e0_0" slope="0.000000"/>
    </timestep>
    <timestep time="48.000">
        <vehicle id="veh0" x="668.343399" y="-1.600000" angle="90.000000" type="hetero" speed="14.635893" pos="668.343399" lane="e0_0" slope="0.000000"/>
    </timestep>
    <timestep time="49.000">
        <vehicle id="veh0" x="682.979292" y="-1.600000" angle="90.000000" type="hetero" speed="14.635893" pos="682.979292" lane="e0_0" slope="0.000000"/>
    </timestep>
    <timestep time="50.000">
        <vehicle id="veh0" x="697.615185" y="-1.600000" angle="90.000000" type="hetero" speed="14.635893" pos="697.615185" lane="e0_0" slope="0.000000"/>
    </timestep>
    <timestep time="51.000">
        <vehicle id="veh0" x="712.251078" y="-1.600000" angle="90.000000" type="hetero" speed="14.635893" pos="712.251078" lane="e0_0" slope="0.000000"/>
    </timestep>
    <timestep time="52.000">
        <vehicle id="veh0" x="726.886971" y="-1.600000" angle="90.000000" type="hetero" speed="14.635893" pos="726.886971" lane="e0_0" slope="0.000000"/>
    </timestep>
    <timestep time="53.000">
        <vehicle id="veh0" x="741.522864" y="-1.600000" angle="90.000000" type="hetero" speed="14.635893" pos="741.522864" lane="e0_0" slope="0.000000"/>
    </timestep>
    <timestep time="54.000">
        <vehicle id="veh0" x="756.158757" y="-1.600000" angle="90.000000" type="hetero" speed="14.635893" pos="756.158757" lane="e0_0" slope="0.000000"/>
    </timestep>
    <timestep time="55.000">
        <vehicle id="veh0" x="770.794650" y="-1.600000" angle="90.000000" type="hetero" speed="14.635893" pos="770.794650" lane="e0_0" slope="0.000000"/>
    </timestep>
    <timestep time="56.000">
        <vehicle id="veh0" x="785.430543" y="-1.600000" angle="90.000000" type="hetero" speed="14.635893" pos="785.430543" lane="e0_0" slope="0.000000"/>
    </timestep>
    <timestep time="57.000">
        <vehicle id="veh0" x="800.066436" y="-1.600000" angle="90.000000" type="hetero" speed="14.635893" pos="800.066436" lane="e0_0" slope="0.000000"/>
    </timestep>
    <timestep time="58.000">
        <vehicle id="veh0" x="814.702329" y="-1.600000" angle="90.000000" type="hetero" speed="14.635893" pos="814.702329" lane="e0_0" slope="0.000000"/>
    </timestep>
    <timestep time="59.000">
        <vehicle id="veh0" x="829.338222" y="-1.600000" angle="90.000000" type="hetero" speed="14.635893" pos="829.338222" lane="e0_0" slope="0.000000"/>
    </timestep>
    <timestep time="60.000">
        <vehicle id="veh0" x="843.974115" y="-1.600000" angle="90.000000" type="hetero" speed="14.635893" pos="843.974115" lane="e0_0" slope="0.000000"/>
    </timestep>
    <timestep time="61.000">
        <vehicle id="veh0" x="858.610008" y="-1.600000" angle="90.000000" type="hetero" speed="14.635893" pos="858.610008" lane="e0_0" slope="0.000000"/>
    </timestep>
    <timestep time="62.000">
        <vehicle id="veh0" x="873.245901" y="-1.600000" angle="90.000000" type="hetero" speed="14.635893" pos="873.245901" lane="e0_0" slope="0.000000"/>
    </timestep>
    <timestep time="63.000">
        <vehicle id="veh0" x="887.881794" y="-1.600000" angle="90.000000" type="hetero" speed="14.635893" pos="887.881794" lane="e0_0" slope="0.000000"/>
    </timestep>
    <timestep time="64.000">
        <vehicle id="veh0" x="902.517687" y="-1.600000" angle="90.000000" type="hetero" speed="14.635893" pos="902.517687" lane="e0_0" slope="0.000000"/>
    </timestep>
    <timestep time="65.000">
        <vehicle id="veh0" x="917.153580" y="-1.600000" angle="90.000000" type="hetero" speed="14.635893" pos="917.153580" lane="e0_0" slope="0.000000"/>
    </timestep>
    <timestep time="66.000">
        <vehicle id="veh0" x="931.789473" y="-1.600000" angle="90.000000" type="hetero" speed="14.635893" pos="931.789473" lane="e0_0" slope="0.000000"/>
    </timestep>
    <timestep time="67.000">
        <vehicle id="veh0" x="946.425366" y="-1.600000" angle="90.000000" type="hetero" speed="14.635893" pos="946.425366" lane="e0_0" slope="0.000000"/>
    </timestep>
    <timestep time="68.000">
        <vehicle id="veh0" x="961.061259" y="-1.600000" angle="90.000000" type="hetero" speed="14.635893" pos="961.061259" lane="e0_0" slope="0.000000"/>
    </timestep>
    <timestep time="69.000">
        <vehicle id="veh0" x="975.697152" y="-1.600000" angle="90.000000" type="hetero" speed="14.635893" pos="975.697152" lane="e0_0" slope="0.000000"/>
    </timestep>
    <timestep time="70.000">
        <vehicle id="veh0" x="990.333045" y="-1.600000" angle="90.000000" type="hetero" speed="14.635893" pos="990.333045" lane="e0_0" slope="0.000000"/>
    </timestep>
    <timestep time="71.000">
        <vehicle id="veh0" x="1004.968938" y="-1.600000" angle="90.000000" type="hetero" speed="14.635893" pos="1004.968938" lane="e0_0" slope="0.000000"/>
    </timestep>
    <timestep time="72.000">
        <vehicle id="veh0" x="1019.604831" y="-1.600000" angle="90.000000" type="hetero" speed="14.635893" pos="1019.604831" lane="e0_0" slope="0.000000"/>
    </timestep>
    <timestep time="73.000">
        <vehicle id="veh0" x="1034.240724" y="-1.600000" angle="90.000000" type="hetero" speed="14.635893" pos="1034.240724" lane="e0_0" slope="0.000000"/>
    </timestep>
    <timestep time="74.000">
        <vehicle id="veh0" x="1048.876617" y="-1.600000" angle="90.000000" type="hetero" speed="14.635893" pos="1048.876617" lane="e0_0" slope="0.000000"/>
    </timestep>
    <timestep time="75.000">
        <vehicle id="veh0" x="1063.512510" y="-1.600000" angle="90.000000" type="hetero" speed="14.635893" pos="1063.512510" lane="e0_0" slope="0.000000"/>
    </timestep>
    <timestep time="76.000">
        <vehicle id="veh0" x="1078.148403" y="-1.600000" angle="90.000000" type="hetero" speed="14.635893" pos="1078.148403" lane="e0_0" slope="0.000000"/>
    </timestep>
    <timestep time="77.000">
        <vehicle id="veh0" x="1092.784296" y="-1.600000" angle="90.000000" type="hetero" speed="14.635893" pos="1092.784296" lane="e0_0" slope="0.000000"/>
    </timestep>
    <timestep time="78.000">
        <vehicle id="veh0" x="1107.420189" y="-1.600000" angle="90.000000" type="hetero" speed="14.635893" pos="1107.420189" lane="e0_0" slope="0.000000"/>
    </timestep>
    <timestep time="79.000">
        <vehicle id="veh0" x="1122.056082" y="-1.600000" angle="90.000000" type="hetero" speed="14.635893" pos="1122.056082" lane="e0_0" slope="0.000000"/>
    </timestep>
</fcd-export>
