<?xml version="1.0" encoding="UTF-8"?>

<!-- generated on 2026-07-08 04:00:16 by Eclipse SUMO sumo Version 1.20.0
<configuration xmlns:xsi="http://www.w3.org/2001/XMLSchema-instance" xsi:noNamespaceSchemaLocation="http://sumo.dlr.de/xsd/sumoConfiguration.xsd">

    <input>
        <net-file value="net.net.xml"/>
        <route-files value="rou.rou.xml"/>
    </input>

    <output>
        <precision value="6"/>
        <fcd-output value="golden.ensemble/seed46.fcd.xml"/>
    </output>

    <time>
        <begin value="0"/>
        <end value="80"/>
        <step-length value="1"/>
    </time>

    <processing>
        <step-method.ballistic value="false"/>
        <collision.action value="none"/>
        <time-to-teleport value="-1"/>
        <default.action-step-length value="1"/>
        <default.speeddev value="0.1"/>
    </processing>

    <report>
        <no-step-log value="true"/>
    </report>

    <random_number>
        <seed value="46"/>
    </random_number>

</configuration>
-->

<fcd-export xmlns:xsi="http://www.w3.org/2001/XMLSchema-instance" xsi:noNamespaceSchemaLocation="http://sumo.dlr.de/xsd/fcd_file.xsd">
    <timestep time="0.000">
        <vehicle id="veh0" x="0.000000" y="-1.600000" angle="90.000000" type="hetero" speed="0.000000" pos="0.000000" lane="e0_0" slope="0.000000"/>
    </timestep>
    <timestep time="1.000">
        <vehicle id="veh0" x="2.600000" y="-1.600000" angle="90.000000" type="hetero" speed="2.600000" pos="2.600000" lane="e0_0" slope="0.000000"/>
    </timestep>
    <timestep time="2.000">
        <vehicle id="veh0" x="7.800000" y="-1.600000" angle="90.000000" type="hetero" speed="5.200000" pos="7.800000" lane="e0_0" slope="0.000000"/>
    </timestep>
    <timestep time="3.000">
        <vehicle id="veh0" x="15.600000" y="-1.600000" angle="90.000000" type="hetero" speed="7.800000" pos="15.600000" lane="e0_0" slope="0.000000"/>
    </timestep>
    <timestep time="4.000">
        <vehicle id="veh0" x="26.000000" y="-1.600000" angle="90.000000" type="hetero" speed="10.400000" pos="26.000000" lane="e0_0" slope="0.000000"/>
    </timestep>
    <timestep time="5.000">
        <vehicle id="veh0" x="39.000000" y="-1.600000" angle="90.000000" type="hetero" speed="13.000000" pos="39.000000" lane="e0_0" slope="0.000000"/>
    </timestep>
    <timestep time="6.000">
        <vehicle id="veh0" x="54.034536" y="-1.600000" angle="90.000000" type="hetero" speed="15.034536" pos="54.034536" lane="e0_0" slope="0.000000"/>
    </timestep>
    <timestep time="7.000">
        <vehicle id="veh0" x="69.069072" y="-1.600000" angle="90.000000" type="hetero" speed="15.034536" pos="69.069072" lane="e0_0" slope="0.000000"/>
    </timestep>
    <timestep time="8.000">
        <vehicle id="veh0" x="84.103608" y="-1.600000" angle="90.000000" type="hetero" speed="15.034536" pos="84.103608" lane="e0_0" slope="0.000000"/>
    </timestep>
    <timestep time="9.000">
        <vehicle id="veh0" x="99.138144" y="-1.600000" angle="90.000000" type="hetero" speed="15.034536" pos="99.138144" lane="e0_0" slope="0.000000"/>
    </timestep>
    <timestep time="10.000">
        <vehicle id="veh0" x="114.172680" y="-1.600000" angle="90.000000" type="hetero" speed="15.034536" pos="114.172680" lane="e0_0" slope="0.000000"/>
    </timestep>
    <timestep time="11.000">
        <vehicle id="veh0" x="129.207216" y="-1.600000" angle="90.000000" type="hetero" speed="15.034536" pos="129.207216" lane="e0_0" slope="0.000000"/>
    </timestep>
    <timestep time="12.000">
        <vehicle id="veh0" x="144.241752" y="-1.600000" angle="90.000000" type="hetero" speed="15.034536" pos="144.241752" lane="e0_0" slope="0.000000"/>
    </timestep>
    <timestep time="13.000">
        <vehicle id="veh0" x="159.276288" y="-1.600000" angle="90.000000" type="hetero" speed="15.034536" pos="159.276288" lane="e0_0" slope="0.000000"/>
    </timestep>
    <timestep time="14.000">
        <vehicle id="veh0" x="174.310824" y="-1.600000" angle="90.000000" type="hetero" speed="15.034536" pos="174.310824" lane="e0_0" slope="0.000000"/>
    </timestep>
    <timestep time="15.000">
        <vehicle id="veh0" x="189.345360" y="-1.600000" angle="90.000000" type="hetero" speed="15.034536" pos="189.345360" lane="e0_0" slope="0.000000"/>
    </timestep>
    <timestep time="16.000">
        <vehicle id="veh0" x="204.379896" y="-1.600000" angle="90.000000" type="hetero" speed="15.034536" pos="204.379896" lane="e0_0" slope="0.000000"/>
    </timestep>
    <timestep time="17.000">
        <vehicle id="veh0" x="219.414432" y="-1.600000" angle="90.000000" type="hetero" speed="15.034536" pos="219.414432" lane="e0_0" slope="0.000000"/>
    </timestep>
    <timestep time="18.000">
        <vehicle id="veh0" x="234.448968" y="-1.600000" angle="90.000000" type="hetero" speed="15.034536" pos="234.448968" lane="e0_0" slope="0.000000"/>
    </timestep>
    <timestep time="19.000">
        <vehicle id="veh0" x="249.483504" y="-1.600000" angle="90.000000" type="hetero" speed="15.034536" pos="249.483504" lane="e0_0" slope="0.000000"/>
    </timestep>
    <timestep time="20.000">
        <vehicle id="veh0" x="264.518040" y="-1.600000" angle="90.000000" type="hetero" speed="15.034536" pos="264.518040" lane="e0_0" slope="0.000000"/>
    </timestep>
    <timestep time="21.000">
        <vehicle id="veh0" x="279.552576" y="-1.600000" angle="90.000000" type="hetero" speed="15.034536" pos="279.552576" lane="e0_0" slope="0.000000"/>
    </timestep>
    <timestep time="22.000">
        <vehicle id="veh0" x="294.587112" y="-1.600000" angle="90.000000" type="hetero" speed="15.034536" pos="294.587112" lane="e0_0" slope="0.000000"/>
    </timestep>
    <timestep time="23.000">
        <vehicle id="veh0" x="309.621648" y="-1.600000" angle="90.000000" type="hetero" speed="15.034536" pos="309.621648" lane="e0_0" slope="0.000000"/>
    </timestep>
    <timestep time="24.000">
        <vehicle id="veh0" x="324.656184" y="-1.600000" angle="90.000000" type="hetero" speed="15.034536" pos="324.656184" lane="e0_0" slope="0.000000"/>
    </timestep>
    <timestep time="25.000">
        <vehicle id="veh0" x="339.690720" y="-1.600000" angle="90.000000" type="hetero" speed="15.034536" pos="339.690720" lane="e0_0" slope="0.000000"/>
    </timestep>
    <timestep time="26.000">
        <vehicle id="veh0" x="354.725256" y="-1.600000" angle="90.000000" type="hetero" speed="15.034536" pos="354.725256" lane="e0_0" slope="0.000000"/>
    </timestep>
    <timestep time="27.000">
        <vehicle id="veh0" x="369.759792" y="-1.600000" angle="90.000000" type="hetero" speed="15.034536" pos="369.759792" lane="e0_0" slope="0.000000"/>
    </timestep>
    <timestep time="28.000">
        <vehicle id="veh0" x="384.794328" y="-1.600000" angle="90.000000" type="hetero" speed="15.034536" pos="384.794328" lane="e0_0" slope="0.000000"/>
    </timestep>
    <timestep time="29.000">
        <vehicle id="veh0" x="399.828864" y="-1.600000" angle="90.000000" type="hetero" speed="15.034536" pos="399.828864" lane="e0_0" slope="0.000000"/>
    </timestep>
    <timestep time="30.000">
        <vehicle id="veh0" x="414.863400" y="-1.600000" angle="90.000000" type="hetero" speed="15.034536" pos="414.863400" lane="e0_0" slope="0.000000"/>
    </timestep>
    <timestep time="31.000">
        <vehicle id="veh0" x="429.897936" y="-1.600000" angle="90.000000" type="hetero" speed="15.034536" pos="429.897936" lane="e0_0" slope="0.000000"/>
    </timestep>
    <timestep time="32.000">
        <vehicle id="veh0" x="444.932472" y="-1.600000" angle="90.000000" type="hetero" speed="15.034536" pos="444.932472" lane="e0_0" slope="0.000000"/>
    </timestep>
    <timestep time="33.000">
        <vehicle id="veh0" x="459.967008" y="-1.600000" angle="90.000000" type="hetero" speed="15.034536" pos="459.967008" lane="e0_0" slope="0.000000"/>
    </timestep>
    <timestep time="34.000">
        <vehicle id="veh0" x="475.001544" y="-1.600000" angle="90.000000" type="hetero" speed="15.034536" pos="475.001544" lane="e0_0" slope="0.000000"/>
    </timestep>
    <timestep time="35.000">
        <vehicle id="veh0" x="490.036080" y="-1.600000" angle="90.000000" type="hetero" speed="15.034536" pos="490.036080" lane="e0_0" slope="0.000000"/>
    </timestep>
    <timestep time="36.000">
        <vehicle id="veh0" x="505.070616" y="-1.600000" angle="90.000000" type="hetero" speed="15.034536" pos="505.070616" lane="e0_0" slope="0.000000"/>
    </timestep>
    <timestep time="37.000">
        <vehicle id="veh0" x="520.105152" y="-1.600000" angle="90.000000" type="hetero" speed="15.034536" pos="520.105152" lane="e0_0" slope="0.000000"/>
    </timestep>
    <timestep time="38.000">
        <vehicle id="veh0" x="535.139688" y="-1.600000" angle="90.000000" type="hetero" speed="15.034536" pos="535.139688" lane="e0_0" slope="0.000000"/>
    </timestep>
    <timestep time="39.000">
        <vehicle id="veh0" x="550.174224" y="-1.600000" angle="90.000000" type="hetero" speed="15.034536" pos="550.174224" lane="e0_0" slope="0.000000"/>
    </timestep>
    <timestep time="40.000">
        <vehicle id="veh0" x="565.208760" y="-1.600000" angle="90.000000" type="hetero" speed="15.034536" pos="565.208760" lane="e0_0" slope="0.000000"/>
    </timestep>
    <timestep time="41.000">
        <vehicle id="veh0" x="580.243296" y="-1.600000" angle="90.000000" type="hetero" speed="15.034536" pos="580.243296" lane="e0_0" slope="0.000000"/>
    </timestep>
    <timestep time="42.000">
        <vehicle id="veh0" x="595.277832" y="-1.600000" angle="90.000000" type="hetero" speed="15.034536" pos="595.277832" lane="e0_0" slope="0.000000"/>
    </timestep>
    <timestep time="43.000">
        <vehicle id="veh0" x="610.312368" y="-1.600000" angle="90.000000" type="hetero" speed="15.034536" pos="610.312368" lane="e0_0" slope="0.000000"/>
    </timestep>
    <timestep time="44.000">
        <vehicle id="veh0" x="625.346904" y="-1.600000" angle="90.000000" type="hetero" speed="15.034536" pos="625.346904" lane="e0_0" slope="0.000000"/>
    </timestep>
    <timestep time="45.000">
        <vehicle id="veh0" x="640.381440" y="-1.600000" angle="90.000000" type="hetero" speed="15.034536" pos="640.381440" lane="e0_0" slope="0.000000"/>
    </timestep>
    <timestep time="46.000">
        <vehicle id="veh0" x="655.415976" y="-1.600000" angle="90.000000" type="hetero" speed="15.034536" pos="655.415976" lane="e0_0" slope="0.000000"/>
    </timestep>
    <timestep time="47.000">
        <vehicle id="veh0" x="670.450512" y="-1.600000" angle="90.000000" type="hetero" speed="15.034536" pos="670.450512" lane="e0_0" slope="0.000000"/>
    </timestep>
    <timestep time="48.000">
        <vehicle id="veh0" x="685.485048" y="-1.600000" angle="90.000000" type="hetero" speed="15.034536" pos="685.485048" lane="e0_0" slope="0.000000"/>
    </timestep>
    <timestep time="49.000">
        <vehicle id="veh0" x="700.519584" y="-1.600000" angle="90.000000" type="hetero" speed="15.034536" pos="700.519584" lane="e0_0" slope="0.000000"/>
    </timestep>
    <timestep time="50.000">
        <vehicle id="veh0" x="715.554120" y="-1.600000" angle="90.000000" type="hetero" speed="15.034536" pos="715.554120" lane="e0_0" slope="0.000000"/>
    </timestep>
    <timestep time="51.000">
        <vehicle id="veh0" x="730.588656" y="-1.600000" angle="90.000000" type="hetero" speed="15.034536" pos="730.588656" lane="e0_0" slope="0.000000"/>
    </timestep>
    <timestep time="52.000">
        <vehicle id="veh0" x="745.623192" y="-1.600000" angle="90.000000" type="hetero" speed="15.034536" pos="745.623192" lane="e0_0" slope="0.000000"/>
    </timestep>
    <timestep time="53.000">
        <vehicle id="veh0" x="760.657728" y="-1.600000" angle="90.000000" type="hetero" speed="15.034536" pos="760.657728" lane="e0_0" slope="0.000000"/>
    </timestep>
    <timestep time="54.000">
        <vehicle id="veh0" x="775.692264" y="-1.600000" angle="90.000000" type="hetero" speed="15.034536" pos="775.692264" lane="e0_0" slope="0.000000"/>
    </timestep>
    <timestep time="55.000">
        <vehicle id="veh0" x="790.726800" y="-1.600000" angle="90.000000" type="hetero" speed="15.034536" pos="790.726800" lane="e0_0" slope="0.000000"/>
    </timestep>
    <timestep time="56.000">
        <vehicle id="veh0" x="805.761336" y="-1.600000" angle="90.000000" type="hetero" speed="15.034536" pos="805.761336" lane="e0_0" slope="0.000000"/>
    </timestep>
    <timestep time="57.000">
        <vehicle id="veh0" x="820.795872" y="-1.600000" angle="90.000000" type="hetero" speed="15.034536" pos="820.795872" lane="e0_0" slope="0.000000"/>
    </timestep>
    <timestep time="58.000">
        <vehicle id="veh0" x="835.830408" y="-1.600000" angle="90.000000" type="hetero" speed="15.034536" pos="835.830408" lane="e0_0" slope="0.000000"/>
    </timestep>
    <timestep time="59.000">
        <vehicle id="veh0" x="850.864944" y="-1.600000" angle="90.000000" type="hetero" speed="15.034536" pos="850.864944" lane="e0_0" slope="0.000000"/>
    </timestep>
    <timestep time="60.000">
        <vehicle id="veh0" x="865.899480" y="-1.600000" angle="90.000000" type="hetero" speed="15.034536" pos="865.899480" lane="e0_0" slope="0.000000"/>
    </timestep>
    <timestep time="61.000">
        <vehicle id="veh0" x="880.934016" y="-1.600000" angle="90.000000" type="hetero" speed="15.034536" pos="880.934016" lane="e0_0" slope="0.000000"/>
    </timestep>
    <timestep time="62.000">
        <vehicle id="veh0" x="895.968552" y="-1.600000" angle="90.000000" type="hetero" speed="15.034536" pos="895.968552" lane="e0_0" slope="0.000000"/>
    </timestep>
    <timestep time="63.000">
        <vehicle id="veh0" x="911.003088" y="-1.600000" angle="90.000000" type="hetero" speed="15.034536" pos="911.003088" lane="e0_0" slope="0.000000"/>
    </timestep>
    <timestep time="64.000">
        <vehicle id="veh0" x="926.037624" y="-1.600000" angle="90.000000" type="hetero" speed="15.034536" pos="926.037624" lane="e0_0" slope="0.000000"/>
    </timestep>
    <timestep time="65.000">
        <vehicle id="veh0" x="941.072160" y="-1.600000" angle="90.000000" type="hetero" speed="15.034536" pos="941.072160" lane="e0_0" slope="0.000000"/>
    </timestep>
    <timestep time="66.000">
        <vehicle id="veh0" x="956.106696" y="-1.600000" angle="90.000000" type="hetero" speed="15.034536" pos="956.106696" lane="e0_0" slope="0.000000"/>
    </timestep>
    <timestep time="67.000">
        <vehicle id="veh0" x="971.141232" y="-1.600000" angle="90.000000" type="hetero" speed="15.034536" pos="971.141232" lane="e0_0" slope="0.000000"/>
    </timestep>
    <timestep time="68.000">
        <vehicle id="veh0" x="986.175768" y="-1.600000" angle="90.000000" type="hetero" speed="15.034536" pos="986.175768" lane="e0_0" slope="0.000000"/>
    </timestep>
    <timestep time="69.000">
        <vehicle id="veh0" x="1001.210304" y="-1.600000" angle="90.000000" type="hetero" speed="15.034536" pos="1001.210304" lane="e0_0" slope="0.000000"/>
    </timestep>
    <timestep time="70.000">
        <vehicle id="veh0" x="1016.244840" y="-1.600000" angle="90.000000" type="hetero" speed="15.034536" pos="1016.244840" lane="e0_0" slope="0.000000"/>
    </timestep>
    <timestep time="71.000">
        <vehicle id="veh0" x="1031.279376" y="-1.600000" angle="90.000000" type="hetero" speed="15.034536" pos="1031.279376" lane="e0_0" slope="0.000000"/>
    </timestep>
    <timestep time="72.000">
        <vehicle id="veh0" x="1046.313912" y="-1.600000" angle="90.000000" type="hetero" speed="15.034536" pos="1046.313912" lane="e0_0" slope="0.000000"/>
    </timestep>
    <timestep time="73.000">
        <vehicle id="veh0" x="1061.348448" y="-1.600000" angle="90.000000" type="hetero" speed="15.034536" pos="1061.348448" lane="e0_0" slope="0.000000"/>
    </timestep>
    <timestep time="74.000">
        <vehicle id="veh0" x="1076.382984" y="-1.600000" angle="90.000000" type="hetero" speed="15.034536" pos="1076.382984" lane="e0_0" slope="0.000000"/>
    </timestep>
    <timestep time="75.000">
        <vehicle id="veh0" x="1091.417520" y="-1.600000" angle="90.000000" type="hetero" speed="15.034536" pos="1091.417520" lane="e0_0" slope="0.000000"/>
    </timestep>
    <timestep time="76.000">
        <vehicle id="veh0" x="1106.452056" y="-1.600000" angle="90.000000" type="hetero" speed="15.034536" pos="1106.452056" lane="e0_0" slope="0.000000"/>
    </timestep>
    <timestep time="77.000">
        <vehicle id="veh0" x="1121.486592" y="-1.600000" angle="90.000000" type="hetero" speed="15.034536" pos="1121.486592" lane="e0_0" slope="0.000000"/>
    </timestep>
    <timestep time="78.000">
        <vehicle id="veh0" x="1136.521128" y="-1.600000" angle="90.000000" type="hetero" speed="15.034536" pos="1136.521128" lane="e0_0" slope="0.000000"/>
    </timestep>
    <timestep time="79.000">
        <vehicle id="veh0" x="1151.555664" y="-1.600000" angle="90.000000" type="hetero" speed="15.034536" pos="1151.555664" lane="e0_0" slope="0.000000"/>
    </timestep>
</fcd-export>
