<?xml version="1.0" encoding="UTF-8"?>

<!-- generated on 2026-07-08 04:00:16 by Eclipse SUMO sumo Version 1.20.0
<configuration xmlns:xsi="http://www.w3.org/2001/XMLSchema-instance" xsi:noNamespaceSchemaLocation="http://sumo.dlr.de/xsd/sumoConfiguration.xsd">

    <input>
        <net-file value="net.net.xml"/>
        <route-files value="rou.rou.xml"/>
    </input>

    <output>
        <precision value="6"/>
        <fcd-output value="golden.ensemble/seed41.fcd.xml"/>
    </output>

    <time>
        <begin value="0"/>
        <end value="80"/>
        <step-length value="1"/>
    </time>

    <processing>
        <step-method.ballistic value="false"/>
        <collision.action value="none"/>
        <time-to-teleport value="-1"/>
        <default.action-step-length value="1"/>
        <default.speeddev value="0.1"/>
    </processing>

    <report>
        <no-step-log value="true"/>
    </report>

    <random_number>
        <seed value="41"/>
    </random_number>

</configuration>
-->

<fcd-export xmlns:xsi="http://www.w3.org/2001/XMLSchema-instance" xsi:noNamespaceSchemaLocation="http://sumo.dlr.de/xsd/fcd_file.xsd">
    <timestep time="0.000">
        <vehicle id="veh0" x="0.000000" y="-1.600000" angle="90.000000" type="hetero" speed="0.000000" pos="0.000000" lane="e0_0" slope="0.000000"/>
    </timestep>
    <timestep time="1.000">
        <vehicle id="veh0" x="2.600000" y="-1.600000" angle="90.000000" type="hetero" speed="2.600000" pos="2.600000" lane="e0_0" slope="0.000000"/>
    </timestep>
    <timestep time="2.000">
        <vehicle id="veh0" x="7.800000" y="-1.600000" angle="90.000000" type="hetero" speed="5.200000" pos="7.800000" lane="e0_0" slope="0.000000"/>
    </timestep>
    <timestep time="3.000">
        <vehicle id="veh0" x="15.600000" y="-1.600000" angle="90.000000" type="hetero" speed="7.800000" pos="15.600000" lane="e0_0" slope="0.000000"/>
    </timestep>
    <timestep time="4.000">
        <vehicle id="veh0" x="26.000000" y="-1.600000" angle="90.000000" type="hetero" speed="10.400000" pos="26.000000" lane="e0_0" slope="0.000000"/>
    </timestep>
    <timestep time="5.000">
        <vehicle id="veh0" x="38.323208" y="-1.600000" angle="90.000000" type="hetero" speed="12.323208" pos="38.323208" lane="e0_0" slope="0.000000"/>
    </timestep>
    <timestep time="6.000">
        <vehicle id="veh0" x="50.646416" y="-1.600000" angle="90.000000" type="hetero" speed="12.323208" pos="50.646416" lane="e0_0" slope="0.000000"/>
    </timestep>
    <timestep time="7.000">
        <vehicle id="veh0" x="62.969624" y="-1.600000" angle="90.000000" type="hetero" speed="12.323208" pos="62.969624" lane="e0_0" slope="0.000000"/>
    </timestep>
    <timestep time="8.000">
        <vehicle id="veh0" x="75.292832" y="-1.600000" angle="90.000000" type="hetero" speed="12.323208" pos="75.292832" lane="e0_0" slope="0.000000"/>
    </timestep>
    <timestep time="9.000">
        <vehicle id="veh0" x="87.616040" y="-1.600000" angle="90.000000" type="hetero" speed="12.323208" pos="87.616040" lane="e0_0" slope="0.000000"/>
    </timestep>
    <timestep time="10.000">
        <vehicle id="veh0" x="99.939248" y="-1.600000" angle="90.000000" type="hetero" speed="12.323208" pos="99.939248" lane="e0_0" slope="0.000000"/>
    </timestep>
    <timestep time="11.000">
        <vehicle id="veh0" x="112.262456" y="-1.600000" angle="90.000000" type="hetero" speed="12.323208" pos="112.262456" lane="e0_0" slope="0.000000"/>
    </timestep>
    <timestep time="12.000">
        <vehicle id="veh0" x="124.585664" y="-1.600000" angle="90.000000" type="hetero" speed="12.323208" pos="124.585664" lane="e0_0" slope="0.000000"/>
    </timestep>
    <timestep time="13.000">
        <vehicle id="veh0" x="136.908872" y="-1.600000" angle="90.000000" type="hetero" speed="12.323208" pos="136.908872" lane="e0_0" slope="0.000000"/>
    </timestep>
    <timestep time="14.000">
        <vehicle id="veh0" x="149.232080" y="-1.600000" angle="90.000000" type="hetero" speed="12.323208" pos="149.232080" lane="e0_0" slope="0.000000"/>
    </timestep>
    <timestep time="15.000">
        <vehicle id="veh0" x="161.555288" y="-1.600000" angle="90.000000" type="hetero" speed="12.323208" pos="161.555288" lane="e0_0" slope="0.000000"/>
    </timestep>
    <timestep time="16.000">
        <vehicle id="veh0" x="173.878496" y="-1.600000" angle="90.000000" type="hetero" speed="12.323208" pos="173.878496" lane="e0_0" slope="0.000000"/>
    </timestep>
    <timestep time="17.000">
        <vehicle id="veh0" x="186.201704" y="-1.600000" angle="90.000000" type="hetero" speed="12.323208" pos="186.201704" lane="e0_0" slope="0.000000"/>
    </timestep>
    <timestep time="18.000">
        <vehicle id="veh0" x="198.524912" y="-1.600000" angle="90.000000" type="hetero" speed="12.323208" pos="198.524912" lane="e0_0" slope="0.000000"/>
    </timestep>
    <timestep time="19.000">
        <vehicle id="veh0" x="210.848120" y="-1.600000" angle="90.000000" type="hetero" speed="12.323208" pos="210.848120" lane="e0_0" slope="0.000000"/>
    </timestep>
    <timestep time="20.000">
        <vehicle id="veh0" x="223.171328" y="-1.600000" angle="90.000000" type="hetero" speed="12.323208" pos="223.171328" lane="e0_0" slope="0.000000"/>
    </timestep>
    <timestep time="21.000">
        <vehicle id="veh0" x="235.494536" y="-1.600000" angle="90.000000" type="hetero" speed="12.323208" pos="235.494536" lane="e0_0" slope="0.000000"/>
    </timestep>
    <timestep time="22.000">
        <vehicle id="veh0" x="247.817744" y="-1.600000" angle="90.000000" type="hetero" speed="12.323208" pos="247.817744" lane="e0_0" slope="0.000000"/>
    </timestep>
    <timestep time="23.000">
        <vehicle id="veh0" x="260.140952" y="-1.600000" angle="90.000000" type="hetero" speed="12.323208" pos="260.140952" lane="e0_0" slope="0.000000"/>
    </timestep>
    <timestep time="24.000">
        <vehicle id="veh0" x="272.464160" y="-1.600000" angle="90.000000" type="hetero" speed="12.323208" pos="272.464160" lane="e0_0" slope="0.000000"/>
    </timestep>
    <timestep time="25.000">
        <vehicle id="veh0" x="284.787368" y="-1.600000" angle="90.000000" type="hetero" speed="12.323208" pos="284.787368" lane="e0_0" slope="0.000000"/>
    </timestep>
    <timestep time="26.000">
        <vehicle id="veh0" x="297.110576" y="-1.600000" angle="90.000000" type="hetero" speed="12.323208" pos="297.110576" lane="e0_0" slope="0.000000"/>
    </timestep>
    <timestep time="27.000">
        <vehicle id="veh0" x="309.433784" y="-1.600000" angle="90.000000" type="hetero" speed="12.323208" pos="309.433784" lane="e0_0" slope="0.000000"/>
    </timestep>
    <timestep time="28.000">
        <vehicle id="veh0" x="321.756992" y="-1.600000" angle="90.000000" type="hetero" speed="12.323208" pos="321.756992" lane="e0_0" slope="0.000000"/>
    </timestep>
    <timestep time="29.000">
        <vehicle id="veh0" x="334.080200" y="-1.600000" angle="90.000000" type="hetero" speed="12.323208" pos="334.080200" lane="e0_0" slope="0.000000"/>
    </timestep>
    <timestep time="30.000">
        <vehicle id="veh0" x="346.403408" y="-1.600000" angle="90.000000" type="hetero" speed="12.323208" pos="346.403408" lane="e0_0" slope="0.000000"/>
    </timestep>
    <timestep time="31.000">
        <vehicle id="veh0" x="358.726616" y="-1.600000" angle="90.000000" type="hetero" speed="12.323208" pos="358.726616" lane="e0_0" slope="0.000000"/>
    </timestep>
    <timestep time="32.000">
        <vehicle id="veh0" x="371.049824" y="-1.600000" angle="90.000000" type="hetero" speed="12.323208" pos="371.049824" lane="e0_0" slope="0.000000"/>
    </timestep>
    <timestep time="33.000">
        <vehicle id="veh0" x="383.373032" y="-1.600000" angle="90.000000" type="hetero" speed="12.323208" pos="383.373032" lane="e0_0" slope="0.000000"/>
    </timestep>
    <timestep time="34.000">
        <vehicle id="veh0" x="395.696240" y="-1.600000" angle="90.000000" type="hetero" speed="12.323208" pos="395.696240" lane="e0_0" slope="0.000000"/>
    </timestep>
    <timestep time="35.000">
        <vehicle id="veh0" x="408.019448" y="-1.600000" angle="90.000000" type="hetero" speed="12.323208" pos="408.019448" lane="e0_0" slope="0.000000"/>
    </timestep>
    <timestep time="36.000">
        <vehicle id="veh0" x="420.342656" y="-1.600000" angle="90.000000" type="hetero" speed="12.323208" pos="420.342656" lane="e0_0" slope="0.000000"/>
    </timestep>
    <timestep time="37.000">
        <vehicle id="veh0" x="432.665864" y="-1.600000" angle="90.000000" type="hetero" speed="12.323208" pos="432.665864" lane="e0_0" slope="0.000000"/>
    </timestep>
    <timestep time="38.000">
        <vehicle id="veh0" x="444.989072" y="-1.600000" angle="90.000000" type="hetero" speed="12.323208" pos="444.989072" lane="e0_0" slope="0.000000"/>
    </timestep>
    <timestep time="39.000">
        <vehicle id="veh0" x="457.312280" y="-1.600000" angle="90.000000" type="hetero" speed="12.323208" pos="457.312280" lane="e0_0" slope="0.000000"/>
    </timestep>
    <timestep time="40.000">
        <vehicle id="veh0" x="469.635488" y="-1.600000" angle="90.000000" type="hetero" speed="12.323208" pos="469.635488" lane="e0_0" slope="0.000000"/>
    </timestep>
    <timestep time="41.000">
        <vehicle id="veh0" x="481.958696" y="-1.600000" angle="90.000000" type="hetero" speed="12.323208" pos="481.958696" lane="e0_0" slope="0.000000"/>
    </timestep>
    <timestep time="42.000">
        <vehicle id="veh0" x="494.281904" y="-1.600000" angle="90.000000" type="hetero" speed="12.323208" pos="494.281904" lane="e0_0" slope="0.000000"/>
    </timestep>
    <timestep time="43.000">
        <vehicle id="veh0" x="506.605112" y="-1.600000" angle="90.000000" type="hetero" speed="12.323208" pos="506.605112" lane="e0_0" slope="0.000000"/>
    </timestep>
    <timestep time="44.000">
        <vehicle id="veh0" x="518.928320" y="-1.600000" angle="90.000000" type="hetero" speed="12.323208" pos="518.928320" lane="e0_0" slope="0.000000"/>
    </timestep>
    <timestep time="45.000">
        <vehicle id="veh0" x="531.251528" y="-1.600000" angle="90.000000" type="hetero" speed="12.323208" pos="531.251528" lane="e0_0" slope="0.000000"/>
    </timestep>
    <timestep time="46.000">
        <vehicle id="veh0" x="543.574736" y="-1.600000" angle="90.000000" type="hetero" speed="12.323208" pos="543.574736" lane="e0_0" slope="0.000000"/>
    </timestep>
    <timestep time="47.000">
        <vehicle id="veh0" x="555.897944" y="-1.600000" angle="90.000000" type="hetero" speed="12.323208" pos="555.897944" lane="e0_0" slope="0.000000"/>
    </timestep>
    <timestep time="48.000">
        <vehicle id="veh0" x="568.221152" y="-1.600000" angle="90.000000" type="hetero" speed="12.323208" pos="568.221152" lane="e0_0" slope="0.000000"/>
    </timestep>
    <timestep time="49.000">
        <vehicle id="veh0" x="580.544360" y="-1.600000" angle="90.000000" type="hetero" speed="12.323208" pos="580.544360" lane="e0_0" slope="0.000000"/>
    </timestep>
    <timestep time="50.000">
        <vehicle id="veh0" x="592.867568" y="-1.600000" angle="90.000000" type="hetero" speed="12.323208" pos="592.867568" lane="e0_0" slope="0.000000"/>
    </timestep>
    <timestep time="51.000">
        <vehicle id="veh0" x="605.190776" y="-1.600000" angle="90.000000" type="hetero" speed="12.323208" pos="605.190776" lane="e0_0" slope="0.000000"/>
    </timestep>
    <timestep time="52.000">
        <vehicle id="veh0" x="617.513984" y="-1.600000" angle="90.000000" type="hetero" speed="12.323208" pos="617.513984" lane="e0_0" slope="0.000000"/>
    </timestep>
    <timestep time="53.000">
        <vehicle id="veh0" x="629.837192" y="-1.600000" angle="90.000000" type="hetero" speed="12.323208" pos="629.837192" lane="e0_0" slope="0.000000"/>
    </timestep>
    <timestep time="54.000">
        <vehicle id="veh0" x="642.160400" y="-1.600000" angle="90.000000" type="hetero" speed="12.323208" pos="642.160400" lane="e0_0" slope="0.000000"/>
    </timestep>
    <timestep time="55.000">
        <vehicle id="veh0" x="654.483608" y="-1.600000" angle="90.000000" type="hetero" speed="12.323208" pos="654.483608" lane="e0_0" slope="0.000000"/>
    </timestep>
    <timestep time="56.000">
        <vehicle id="veh0" x="666.806816" y="-1.600000" angle="90.000000" type="hetero" speed="12.323208" pos="666.806816" lane="e0_0" slope="0.000000"/>
    </timestep>
    <timestep time="57.000">
        <vehicle id="veh0" x="679.130024" y="-1.600000" angle="90.000000" type="hetero" speed="12.323208" pos="679.130024" lane="e0_0" slope="0.000000"/>
    </timestep>
    <timestep time="58.000">
        <vehicle id="veh0" x="691.453232" y="-1.600000" angle="90.000000" type="hetero" speed="12.323208" pos="691.453232" lane="e0_0" slope="0.000000"/>
    </timestep>
    <timestep time="59.000">
        <vehicle id="veh0" x="703.776440" y="-1.600000" angle="90.000000" type="hetero" speed="12.323208" pos="703.776440" lane="e0_0" slope="0.000000"/>
    </timestep>
    <timestep time="60.000">
        <vehicle id="veh0" x="716.099648" y="-1.600000" angle="90.000000" type="hetero" speed="12.323208" pos="716.099648" lane="e0_0" slope="0.000000"/>
    </timestep>
    <timestep time="61.000">
        <vehicle id="veh0" x="728.422856" y="-1.600000" angle="90.000000" type="hetero" speed="12.323208" pos="728.422856" lane="e0_0" slope="0.000000"/>
    </timestep>
    <timestep time="62.000">
        <vehicle id="veh0" x="740.746064" y="-1.600000" angle="90.000000" type="hetero" speed="12.323208" pos="740.746064" lane="e0_0" slope="0.000000"/>
    </timestep>
    <timestep time="63.000">
        <vehicle id="veh0" x="753.069272" y="-1.600000" angle="90.000000" type="hetero" speed="12.323208" pos="753.069272" lane="e0_0" slope="0.000000"/>
    </timestep>
    <timestep time="64.000">
        <vehicle id="veh0" x="765.392480" y="-1.600000" angle="90.000000" type="hetero" speed="12.323208" pos="765.392480" lane="e0_0" slope="0.000000"/>
    </timestep>
    <timestep time="65.000">
        <vehicle id="veh0" x="777.715688" y="-1.600000" angle="90.000000" type="hetero" speed="12.323208" pos="777.715688" lane="e0_0" slope="0.000000"/>
    </timestep>
    <timestep time="66.000">
        <vehicle id="veh0" x="790.038896" y="-1.600000" angle="90.000000" type="hetero" speed="12.323208" pos="790.038896" lane="e0_0" slope="0.000000"/>
    </timestep>
    <timestep time="67.000">
        <vehicle id="veh0" x="802.362104" y="-1.600000" angle="90.000000" type="hetero" speed="12.323208" pos="802.362104" lane="e0_0" slope="0.000000"/>
    </timestep>
    <timestep time="68.000">
        <vehicle id="veh0" x="814.685312" y="-1.600000" angle="90.000000" type="hetero" speed="12.323208" pos="814.685312" lane="e0_0" slope="0.000000"/>
    </timestep>
    <timestep time="69.000">
        <vehicle id="veh0" x="827.008520" y="-1.600000" angle="90.000000" type="hetero" speed="12.323208" pos="827.008520" lane="e0_0" slope="0.000000"/>
    </timestep>
    <timestep time="70.000">
        <vehicle id="veh0" x="839.331728" y="-1.600000" angle="90.000000" type="hetero" speed="12.323208" pos="839.331728" lane="e0_0" slope="0.000000"/>
    </timestep>
    <timestep time="71.000">
        <vehicle id="veh0" x="851.654936" y="-1.600000" angle="90.000000" type="hetero" speed="12.323208" pos="851.654936" lane="e0_0" slope="0.000000"/>
    </timestep>
    <timestep time="72.000">
        <vehicle id="veh0" x="863.978144" y="-1.600000" angle="90.000000" type="hetero" speed="12.323208" pos="863.978144" lane="e0_0" slope="0.000000"/>
    </timestep>
    <timestep time="73.000">
        <vehicle id="veh0" x="876.301352" y="-1.600000" angle="90.000000" type="hetero" speed="12.323208" pos="876.301352" lane="e0_0" slope="0.000000"/>
    </timestep>
    <timestep time="74.000">
        <vehicle id="veh0" x="888.624560" y="-1.600000" angle="90.000000" type="hetero" speed="12.323208" pos="888.624560" lane="e0_0" slope="0.000000"/>
    </timestep>
    <timestep time="75.000">
        <vehicle id="veh0" x="900.947768" y="-1.600000" angle="90.000000" type="hetero" speed="12.323208" pos="900.947768" lane="e0_0" slope="0.000000"/>
    </timestep>
    <timestep time="76.000">
        <vehicle id="veh0" x="913.270976" y="-1.600000" angle="90.000000" type="hetero" speed="12.323208" pos="913.270976" lane="e0_0" slope="0.000000"/>
    </timestep>
    <timestep time="77.000">
        <vehicle id="veh0" x="925.594184" y="-1.600000" angle="90.000000" type="hetero" speed="12.323208" pos="925.594184" lane="e0_0" slope="0.000000"/>
    </timestep>
    <timestep time="78.000">
        <vehicle id="veh0" x="937.917392" y="-1.600000" angle="90.000000" type="hetero" speed="12.323208" pos="937.917392" lane="e0_0" slope="0.000000"/>
    </timestep>
    <timestep time="79.000">
        <vehicle id="veh0" x="950.240600" y="-1.600000" angle="90.000000" type="hetero" speed="12.323208" pos="950.240600" lane="e0_0" slope="0.000000"/>
    </timestep>
</fcd-export>
