<?xml version="1.0" encoding="UTF-8"?>

<!-- generated on 2026-07-21 19:11:11 by Eclipse SUMO sumo Version 1.20.0
<configuration xmlns:xsi="http://www.w3.org/2001/XMLSchema-instance" xsi:noNamespaceSchemaLocation="http://sumo.dlr.de/xsd/sumoConfiguration.xsd">

    <input>
        <net-file value="net.net.xml"/>
        <route-files value="rou.rou.xml"/>
    </input>

    <output>
        <precision value="6"/>
        <fcd-output value="golden.fcd.xml"/>
        <fcd-output.acceleration value="true"/>
        <save-state.times value="1"/>
        <save-state.files value="golden.state.xml"/>
    </output>

    <time>
        <begin value="0"/>
        <end value="100"/>
        <step-length value="1"/>
    </time>

    <processing>
        <step-method.ballistic value="false"/>
        <collision.action value="none"/>
        <time-to-teleport value="-1"/>
        <lanechange.duration value="0"/>
        <default.action-step-length value="1"/>
        <default.speeddev value="0"/>
    </processing>

    <report>
        <no-step-log value="true"/>
    </report>

    <random_number>
        <seed value="42"/>
    </random_number>

</configuration>
-->

<fcd-export xmlns:xsi="http://www.w3.org/2001/XMLSchema-instance" xsi:noNamespaceSchemaLocation="http://sumo.dlr.de/xsd/fcd_file.xsd">
    <timestep time="0.000">
        <vehicle id="veh0" x="7.100000" y="-4.800000" angle="90.000000" type="car" speed="0.000000" pos="7.100000" lane="E1_0" slope="0.000000" acceleration="0.000000"/>
    </timestep>
    <timestep time="1.000">
        <vehicle id="veh0" x="9.700000" y="-4.800000" angle="90.000000" type="car" speed="2.600000" pos="9.700000" lane="E1_0" slope="0.000000" acceleration="2.600000"/>
    </timestep>
    <timestep time="2.000">
        <vehicle id="veh0" x="14.900000" y="-4.800000" angle="90.000000" type="car" speed="5.200000" pos="14.900000" lane="E1_0" slope="0.000000" acceleration="2.600000"/>
    </timestep>
    <timestep time="3.000">
        <vehicle id="veh0" x="22.700000" y="-4.800000" angle="90.000000" type="car" speed="7.800000" pos="22.700000" lane="E1_0" slope="0.000000" acceleration="2.600000"/>
    </timestep>
    <timestep time="4.000">
        <vehicle id="veh0" x="33.100000" y="-4.800000" angle="90.000000" type="car" speed="10.400000" pos="33.100000" lane="E1_0" slope="0.000000" acceleration="2.600000"/>
    </timestep>
    <timestep time="5.000">
        <vehicle id="veh0" x="46.100000" y="-4.800000" angle="90.000000" type="car" speed="13.000000" pos="46.100000" lane="E1_0" slope="0.000000" acceleration="2.600000"/>
    </timestep>
    <timestep time="6.000">
        <vehicle id="veh0" x="59.990000" y="-4.800000" angle="90.000000" type="car" speed="13.890000" pos="59.990000" lane="E1_0" slope="0.000000" acceleration="0.890000"/>
    </timestep>
    <timestep time="7.000">
        <vehicle id="veh0" x="73.880000" y="-4.800000" angle="90.000000" type="car" speed="13.890000" pos="73.880000" lane="E1_0" slope="0.000000" acceleration="0.000000"/>
    </timestep>
    <timestep time="8.000">
        <vehicle id="veh0" x="87.770000" y="-4.800000" angle="90.000000" type="car" speed="13.890000" pos="87.770000" lane="E1_0" slope="0.000000" acceleration="0.000000"/>
    </timestep>
    <timestep time="9.000">
        <vehicle id="veh0" x="101.660000" y="-4.800000" angle="90.000000" type="car" speed="13.890000" pos="101.660000" lane="E1_0" slope="0.000000" acceleration="0.000000"/>
    </timestep>
    <timestep time="10.000">
        <vehicle id="veh0" x="115.550000" y="-4.800000" angle="90.000000" type="car" speed="13.890000" pos="115.550000" lane="E1_0" slope="0.000000" acceleration="0.000000"/>
    </timestep>
    <timestep time="11.000">
        <vehicle id="veh0" x="129.440000" y="-4.800000" angle="90.000000" type="car" speed="13.890000" pos="129.440000" lane="E1_0" slope="0.000000" acceleration="0.000000"/>
    </timestep>
    <timestep time="12.000">
        <vehicle id="veh0" x="143.330000" y="-4.800000" angle="90.000000" type="car" speed="13.890000" pos="143.330000" lane="E1_0" slope="0.000000" acceleration="0.000000"/>
    </timestep>
    <timestep time="13.000">
        <vehicle id="veh0" x="157.220000" y="-4.800000" angle="90.000000" type="car" speed="13.890000" pos="157.220000" lane="E1_0" slope="0.000000" acceleration="0.000000"/>
    </timestep>
    <timestep time="14.000">
        <vehicle id="veh0" x="171.110000" y="-4.800000" angle="90.000000" type="car" speed="13.890000" pos="171.110000" lane="E1_0" slope="0.000000" acceleration="0.000000"/>
    </timestep>
    <timestep time="15.000">
        <vehicle id="veh0" x="185.000000" y="-4.800000" angle="90.000000" type="car" speed="13.890000" pos="185.000000" lane="E1_0" slope="0.000000" acceleration="0.000000"/>
    </timestep>
    <timestep time="16.000">
        <vehicle id="veh0" x="198.890000" y="-4.800000" angle="90.000000" type="car" speed="13.890000" pos="198.890000" lane="E1_0" slope="0.000000" acceleration="0.000000"/>
    </timestep>
    <timestep time="17.000">
        <vehicle id="veh0" x="212.780000" y="-4.800000" angle="90.000000" type="car" speed="13.890000" pos="212.780000" lane="E1_0" slope="0.000000" acceleration="0.000000"/>
    </timestep>
    <timestep time="18.000">
        <vehicle id="veh0" x="226.670000" y="-4.800000" angle="90.000000" type="car" speed="13.890000" pos="226.670000" lane="E1_0" slope="0.000000" acceleration="0.000000"/>
    </timestep>
    <timestep time="19.000">
        <vehicle id="veh0" x="240.560000" y="-4.800000" angle="90.000000" type="car" speed="13.890000" pos="240.560000" lane="E1_0" slope="0.000000" acceleration="0.000000"/>
    </timestep>
    <timestep time="20.000">
        <vehicle id="veh0" x="254.450000" y="-4.800000" angle="90.000000" type="car" speed="13.890000" pos="254.450000" lane="E1_0" slope="0.000000" acceleration="0.000000"/>
    </timestep>
    <timestep time="21.000">
        <vehicle id="veh0" x="268.340000" y="-4.800000" angle="90.000000" type="car" speed="13.890000" pos="268.340000" lane="E1_0" slope="0.000000" acceleration="0.000000"/>
    </timestep>
    <timestep time="22.000">
        <vehicle id="veh0" x="282.230000" y="-4.800000" angle="90.000000" type="car" speed="13.890000" pos="282.230000" lane="E1_0" slope="0.000000" acceleration="0.000000"/>
    </timestep>
    <timestep time="23.000">
        <vehicle id="veh0" x="296.120000" y="-4.800000" angle="90.000000" type="car" speed="13.890000" pos="296.120000" lane="E1_0" slope="0.000000" acceleration="0.000000"/>
    </timestep>
    <timestep time="24.000">
        <vehicle id="veh0" x="310.010000" y="-4.800000" angle="90.000000" type="car" speed="13.890000" pos="310.010000" lane="E1_0" slope="0.000000" acceleration="0.000000"/>
    </timestep>
    <timestep time="25.000">
        <vehicle id="veh0" x="323.900000" y="-4.800000" angle="90.000000" type="car" speed="13.890000" pos="323.900000" lane="E1_0" slope="0.000000" acceleration="0.000000"/>
    </timestep>
    <timestep time="26.000">
        <vehicle id="veh0" x="337.790000" y="-4.800000" angle="90.000000" type="car" speed="13.890000" pos="337.790000" lane="E1_0" slope="0.000000" acceleration="0.000000"/>
    </timestep>
    <timestep time="27.000">
        <vehicle id="veh0" x="351.680000" y="-4.800000" angle="90.000000" type="car" speed="13.890000" pos="351.680000" lane="E1_0" slope="0.000000" acceleration="0.000000"/>
    </timestep>
    <timestep time="28.000">
        <vehicle id="veh0" x="365.570000" y="-4.800000" angle="90.000000" type="car" speed="13.890000" pos="365.570000" lane="E1_0" slope="0.000000" acceleration="0.000000"/>
    </timestep>
    <timestep time="29.000">
        <vehicle id="veh0" x="379.460000" y="-4.800000" angle="90.000000" type="car" speed="13.890000" pos="379.460000" lane="E1_0" slope="0.000000" acceleration="0.000000"/>
    </timestep>
    <timestep time="30.000">
        <vehicle id="veh0" x="393.350000" y="-4.800000" angle="90.000000" type="car" speed="13.890000" pos="393.350000" lane="E1_0" slope="0.000000" acceleration="0.000000"/>
    </timestep>
    <timestep time="31.000">
        <vehicle id="veh0" x="407.240000" y="-4.800000" angle="90.000000" type="car" speed="13.890000" pos="407.240000" lane="E1_0" slope="0.000000" acceleration="0.000000"/>
    </timestep>
    <timestep time="32.000">
        <vehicle id="veh0" x="421.130000" y="-4.800000" angle="90.000000" type="car" speed="13.890000" pos="421.130000" lane="E1_0" slope="0.000000" acceleration="0.000000"/>
    </timestep>
    <timestep time="33.000">
        <vehicle id="veh0" x="435.020000" y="-4.800000" angle="90.000000" type="car" speed="13.890000" pos="435.020000" lane="E1_0" slope="0.000000" acceleration="0.000000"/>
    </timestep>
    <timestep time="34.000">
        <vehicle id="veh0" x="448.910000" y="-4.800000" angle="90.000000" type="car" speed="13.890000" pos="448.910000" lane="E1_0" slope="0.000000" acceleration="0.000000"/>
    </timestep>
    <timestep time="35.000">
        <vehicle id="veh0" x="462.800000" y="-4.800000" angle="90.000000" type="car" speed="13.890000" pos="462.800000" lane="E1_0" slope="0.000000" acceleration="0.000000"/>
    </timestep>
    <timestep time="36.000">
        <vehicle id="veh0" x="476.690000" y="-4.800000" angle="90.000000" type="car" speed="13.890000" pos="476.690000" lane="E1_0" slope="0.000000" acceleration="0.000000"/>
    </timestep>
    <timestep time="37.000">
        <vehicle id="veh0" x="490.580000" y="-4.800000" angle="90.000000" type="car" speed="13.890000" pos="490.580000" lane="E1_0" slope="0.000000" acceleration="0.000000"/>
    </timestep>
    <timestep time="38.000"/>
    <timestep time="39.000"/>
    <timestep time="40.000"/>
    <timestep time="41.000"/>
    <timestep time="42.000"/>
    <timestep time="43.000"/>
    <timestep time="44.000"/>
    <timestep time="45.000">
        <vehicle id="veh1" x="3.000000" y="-4.800000" angle="90.000000" type="car" speed="0.000000" pos="3.000000" lane="E1_0" slope="0.000000" acceleration="0.000000"/>
    </timestep>
    <timestep time="46.000">
        <vehicle id="veh1" x="3.000000" y="-4.800000" angle="90.000000" type="car" speed="0.000000" pos="3.000000" lane="E1_0" slope="0.000000" acceleration="0.000000"/>
    </timestep>
    <timestep time="47.000">
        <vehicle id="veh1" x="3.000000" y="-4.800000" angle="90.000000" type="car" speed="0.000000" pos="3.000000" lane="E1_0" slope="0.000000" acceleration="0.000000"/>
    </timestep>
    <timestep time="48.000">
        <vehicle id="veh1" x="3.000000" y="-4.800000" angle="90.000000" type="car" speed="0.000000" pos="3.000000" lane="E1_0" slope="0.000000" acceleration="0.000000"/>
    </timestep>
    <timestep time="49.000">
        <vehicle id="veh1" x="3.000000" y="-4.800000" angle="90.000000" type="car" speed="0.000000" pos="3.000000" lane="E1_0" slope="0.000000" acceleration="0.000000"/>
    </timestep>
    <timestep time="50.000">
        <vehicle id="veh1" x="3.000000" y="-4.800000" angle="90.000000" type="car" speed="0.000000" pos="3.000000" lane="E1_0" slope="0.000000" acceleration="0.000000"/>
    </timestep>
    <timestep time="51.000">
        <vehicle id="veh1" x="5.600000" y="-4.800000" angle="90.000000" type="car" speed="2.600000" pos="5.600000" lane="E1_0" slope="0.000000" acceleration="2.600000"/>
    </timestep>
    <timestep time="52.000">
        <vehicle id="veh1" x="10.800000" y="-4.800000" angle="90.000000" type="car" speed="5.200000" pos="10.800000" lane="E1_0" slope="0.000000" acceleration="2.600000"/>
    </timestep>
    <timestep time="53.000">
        <vehicle id="veh1" x="18.600000" y="-4.800000" angle="90.000000" type="car" speed="7.800000" pos="18.600000" lane="E1_0" slope="0.000000" acceleration="2.600000"/>
    </timestep>
    <timestep time="54.000">
        <vehicle id="veh1" x="29.000000" y="-4.800000" angle="90.000000" type="car" speed="10.400000" pos="29.000000" lane="E1_0" slope="0.000000" acceleration="2.600000"/>
    </timestep>
    <timestep time="55.000">
        <vehicle id="veh1" x="42.000000" y="-4.800000" angle="90.000000" type="car" speed="13.000000" pos="42.000000" lane="E1_0" slope="0.000000" acceleration="2.600000"/>
    </timestep>
    <timestep time="56.000">
        <vehicle id="veh1" x="55.890000" y="-4.800000" angle="90.000000" type="car" speed="13.890000" pos="55.890000" lane="E1_0" slope="0.000000" acceleration="0.890000"/>
    </timestep>
    <timestep time="57.000">
        <vehicle id="veh1" x="69.780000" y="-4.800000" angle="90.000000" type="car" speed="13.890000" pos="69.780000" lane="E1_0" slope="0.000000" acceleration="0.000000"/>
    </timestep>
    <timestep time="58.000">
        <vehicle id="veh1" x="83.670000" y="-4.800000" angle="90.000000" type="car" speed="13.890000" pos="83.670000" lane="E1_0" slope="0.000000" acceleration="0.000000"/>
    </timestep>
    <timestep time="59.000">
        <vehicle id="veh1" x="97.560000" y="-4.800000" angle="90.000000" type="car" speed="13.890000" pos="97.560000" lane="E1_0" slope="0.000000" acceleration="0.000000"/>
    </timestep>
    <timestep time="60.000">
        <vehicle id="veh1" x="111.450000" y="-4.800000" angle="90.000000" type="car" speed="13.890000" pos="111.450000" lane="E1_0" slope="0.000000" acceleration="0.000000"/>
    </timestep>
    <timestep time="61.000">
        <vehicle id="veh1" x="125.340000" y="-4.800000" angle="90.000000" type="car" speed="13.890000" pos="125.340000" lane="E1_0" slope="0.000000" acceleration="0.000000"/>
    </timestep>
    <timestep time="62.000">
        <vehicle id="veh1" x="139.230000" y="-4.800000" angle="90.000000" type="car" speed="13.890000" pos="139.230000" lane="E1_0" slope="0.000000" acceleration="0.000000"/>
    </timestep>
    <timestep time="63.000">
        <vehicle id="veh1" x="153.120000" y="-4.800000" angle="90.000000" type="car" speed="13.890000" pos="153.120000" lane="E1_0" slope="0.000000" acceleration="0.000000"/>
    </timestep>
    <timestep time="64.000">
        <vehicle id="veh1" x="167.010000" y="-4.800000" angle="90.000000" type="car" speed="13.890000" pos="167.010000" lane="E1_0" slope="0.000000" acceleration="0.000000"/>
    </timestep>
    <timestep time="65.000">
        <vehicle id="veh1" x="180.900000" y="-4.800000" angle="90.000000" type="car" speed="13.890000" pos="180.900000" lane="E1_0" slope="0.000000" acceleration="0.000000"/>
    </timestep>
    <timestep time="66.000">
        <vehicle id="veh1" x="194.790000" y="-4.800000" angle="90.000000" type="car" speed="13.890000" pos="194.790000" lane="E1_0" slope="0.000000" acceleration="0.000000"/>
    </timestep>
    <timestep time="67.000">
        <vehicle id="veh1" x="208.680000" y="-4.800000" angle="90.000000" type="car" speed="13.890000" pos="208.680000" lane="E1_0" slope="0.000000" acceleration="0.000000"/>
    </timestep>
    <timestep time="68.000">
        <vehicle id="veh1" x="222.570000" y="-4.800000" angle="90.000000" type="car" speed="13.890000" pos="222.570000" lane="E1_0" slope="0.000000" acceleration="0.000000"/>
    </timestep>
    <timestep time="69.000">
        <vehicle id="veh1" x="236.460000" y="-4.800000" angle="90.000000" type="car" speed="13.890000" pos="236.460000" lane="E1_0" slope="0.000000" acceleration="0.000000"/>
    </timestep>
    <timestep time="70.000">
        <vehicle id="veh1" x="250.350000" y="-4.800000" angle="90.000000" type="car" speed="13.890000" pos="250.350000" lane="E1_0" slope="0.000000" acceleration="0.000000"/>
    </timestep>
    <timestep time="71.000">
        <vehicle id="veh1" x="264.240000" y="-4.800000" angle="90.000000" type="car" speed="13.890000" pos="264.240000" lane="E1_0" slope="0.000000" acceleration="0.000000"/>
    </timestep>
    <timestep time="72.000">
        <vehicle id="veh1" x="278.130000" y="-4.800000" angle="90.000000" type="car" speed="13.890000" pos="278.130000" lane="E1_0" slope="0.000000" acceleration="0.000000"/>
    </timestep>
    <timestep time="73.000">
        <vehicle id="veh1" x="292.020000" y="-4.800000" angle="90.000000" type="car" speed="13.890000" pos="292.020000" lane="E1_0" slope="0.000000" acceleration="0.000000"/>
    </timestep>
    <timestep time="74.000">
        <vehicle id="veh1" x="305.910000" y="-4.800000" angle="90.000000" type="car" speed="13.890000" pos="305.910000" lane="E1_0" slope="0.000000" acceleration="0.000000"/>
    </timestep>
    <timestep time="75.000">
        <vehicle id="veh1" x="319.800000" y="-4.800000" angle="90.000000" type="car" speed="13.890000" pos="319.800000" lane="E1_0" slope="0.000000" acceleration="0.000000"/>
    </timestep>
    <timestep time="76.000">
        <vehicle id="veh1" x="333.690000" y="-4.800000" angle="90.000000" type="car" speed="13.890000" pos="333.690000" lane="E1_0" slope="0.000000" acceleration="0.000000"/>
    </timestep>
    <timestep time="77.000">
        <vehicle id="veh1" x="347.580000" y="-4.800000" angle="90.000000" type="car" speed="13.890000" pos="347.580000" lane="E1_0" slope="0.000000" acceleration="0.000000"/>
    </timestep>
    <timestep time="78.000">
        <vehicle id="veh1" x="361.470000" y="-4.800000" angle="90.000000" type="car" speed="13.890000" pos="361.470000" lane="E1_0" slope="0.000000" acceleration="0.000000"/>
    </timestep>
    <timestep time="79.000">
        <vehicle id="veh1" x="375.360000" y="-4.800000" angle="90.000000" type="car" speed="13.890000" pos="375.360000" lane="E1_0" slope="0.000000" acceleration="0.000000"/>
    </timestep>
    <timestep time="80.000">
        <vehicle id="veh1" x="389.250000" y="-4.800000" angle="90.000000" type="car" speed="13.890000" pos="389.250000" lane="E1_0" slope="0.000000" acceleration="0.000000"/>
    </timestep>
    <timestep time="81.000">
        <vehicle id="veh1" x="403.140000" y="-4.800000" angle="90.000000" type="car" speed="13.890000" pos="403.140000" lane="E1_0" slope="0.000000" acceleration="0.000000"/>
    </timestep>
    <timestep time="82.000">
        <vehicle id="veh1" x="417.030000" y="-4.800000" angle="90.000000" type="car" speed="13.890000" pos="417.030000" lane="E1_0" slope="0.000000" acceleration="0.000000"/>
    </timestep>
    <timestep time="83.000">
        <vehicle id="veh1" x="430.920000" y="-4.800000" angle="90.000000" type="car" speed="13.890000" pos="430.920000" lane="E1_0" slope="0.000000" acceleration="0.000000"/>
    </timestep>
    <timestep time="84.000">
        <vehicle id="veh1" x="444.810000" y="-4.800000" angle="90.000000" type="car" speed="13.890000" pos="444.810000" lane="E1_0" slope="0.000000" acceleration="0.000000"/>
    </timestep>
    <timestep time="85.000">
        <vehicle id="veh1" x="458.700000" y="-4.800000" angle="90.000000" type="car" speed="13.890000" pos="458.700000" lane="E1_0" slope="0.000000" acceleration="0.000000"/>
    </timestep>
    <timestep time="86.000">
        <vehicle id="veh1" x="472.590000" y="-4.800000" angle="90.000000" type="car" speed="13.890000" pos="472.590000" lane="E1_0" slope="0.000000" acceleration="0.000000"/>
    </timestep>
    <timestep time="87.000">
        <vehicle id="veh1" x="486.480000" y="-4.800000" angle="90.000000" type="car" speed="13.890000" pos="486.480000" lane="E1_0" slope="0.000000" acceleration="0.000000"/>
    </timestep>
    <timestep time="88.000"/>
    <timestep time="89.000"/>
    <timestep time="90.000"/>
    <timestep time="91.000"/>
    <timestep time="92.000"/>
    <timestep time="93.000"/>
    <timestep time="94.000"/>
    <timestep time="95.000"/>
    <timestep time="96.000"/>
    <timestep time="97.000"/>
    <timestep time="98.000"/>
    <timestep time="99.000"/>
</fcd-export>
