<?xml version="1.0" encoding="UTF-8"?>

<!-- generated on 2026-07-18 21:53:14 by Eclipse SUMO sumo Version 1.20.0
<configuration xmlns:xsi="http://www.w3.org/2001/XMLSchema-instance" xsi:noNamespaceSchemaLocation="http://sumo.dlr.de/xsd/sumoConfiguration.xsd">

    <input>
        <net-file value="/home/user/SumoSharp/scenarios/72-parkstop-maxspeed/net.net.xml"/>
        <route-files value="/home/user/SumoSharp/scenarios/72-parkstop-maxspeed/rou.rou.xml"/>
        <additional-files value="/home/user/SumoSharp/scenarios/72-parkstop-maxspeed/extra.add.xml"/>
    </input>

    <output>
        <precision value="6"/>
        <fcd-output value="/home/user/SumoSharp/scenarios/72-parkstop-maxspeed/golden.fcd.xml"/>
        <fcd-output.acceleration value="true"/>
        <tripinfo-output value="/home/user/SumoSharp/scenarios/72-parkstop-maxspeed/golden.tripinfo.xml"/>
        <save-state.times value="1"/>
        <save-state.files value="/home/user/SumoSharp/scenarios/72-parkstop-maxspeed/golden.state.xml"/>
    </output>

    <time>
        <begin value="0"/>
        <end value="30"/>
        <step-length value="1"/>
    </time>

    <processing>
        <step-method.ballistic value="false"/>
        <collision.action value="none"/>
        <time-to-teleport value="-1"/>
        <default.action-step-length value="1"/>
        <default.speeddev value="0"/>
    </processing>

    <report>
        <no-step-log value="true"/>
    </report>

    <random_number>
        <seed value="42"/>
    </random_number>

</configuration>
-->

<tripinfos xmlns:xsi="http://www.w3.org/2001/XMLSchema-instance" xsi:noNamespaceSchemaLocation="http://sumo.dlr.de/xsd/tripinfo_file.xsd">
    <tripinfo id="origin" depart="0.000" departLane="e0_1" departPos="40.000000" departSpeed="0.000000" departDelay="0.000" arrival="15.000" arrivalLane="e1_0" arrivalPos="22.800000" arrivalSpeed="10.000000" duration="15.000" routeLength="50.570000" waitingTime="0.000" waitingCount="0" stopTime="8.000" timeLoss="1.440" rerouteNo="0" devices="tripinfo_origin fcd_origin" vType="car" speedFactor="1.000000" vaporized=""/>
</tripinfos>
