<?xml version="1.0" encoding="UTF-8"?>
<fcd-export xmlns:xsi="http://www.w3.org/2001/XMLSchema-instance" xsi:noNamespaceSchemaLocation="http://sumo.dlr.de/xsd/fcd_file.xsd">
    <timestep time="0.00">
        <vehicle id="veh0" x="5.10" y="1.60" angle="90.00" type="passenger" speed="0.00" pos="5.10" lane="edge0_0" slope="0.00"/>
    </timestep>
    <timestep time="1.00">
        <vehicle id="veh0" x="6.10" y="1.60" angle="90.00" type="passenger" speed="1.00" pos="6.10" lane="edge0_0" slope="0.00" acceleration="1.00"/>
    </timestep>
</fcd-export>
