<?xml version="1.0" encoding="UTF-8"?>

<!-- generated on 2026-07-17 09:20:43 by Eclipse SUMO sumo Version 1.20.0
<configuration xmlns:xsi="http://www.w3.org/2001/XMLSchema-instance" xsi:noNamespaceSchemaLocation="http://sumo.dlr.de/xsd/sumoConfiguration.xsd">

    <input>
        <net-file value="net.net.xml"/>
        <route-files value="vtypes.rou.xml,demand.rou.xml"/>
        <additional-files value="extra.add.xml"/>
    </input>

    <output>
        <precision value="6"/>
        <fcd-output value="golden.fcd.xml"/>
        <fcd-output.acceleration value="true"/>
        <save-state.times value="1"/>
        <save-state.files value="golden.state.xml"/>
    </output>

    <time>
        <begin value="0"/>
        <end value="120"/>
        <step-length value="1"/>
    </time>

    <processing>
        <step-method.ballistic value="false"/>
        <collision.action value="none"/>
        <time-to-teleport value="-1"/>
        <default.action-step-length value="1"/>
        <default.speeddev value="0"/>
    </processing>

    <report>
        <no-step-log value="true"/>
    </report>

    <random_number>
        <seed value="42"/>
    </random_number>

</configuration>
-->

<fcd-export xmlns:xsi="http://www.w3.org/2001/XMLSchema-instance" xsi:noNamespaceSchemaLocation="http://sumo.dlr.de/xsd/fcd_file.xsd">
    <timestep time="0.000">
        <vehicle id="veh0" x="100.000000" y="-1.600000" angle="90.000000" type="leader" speed="0.000000" pos="100.000000" lane="e0_0" slope="0.000000" acceleration="0.000000"/>
        <vehicle id="veh1" x="0.000000" y="-1.600000" angle="90.000000" type="follower" speed="0.000000" pos="0.000000" lane="e0_0" slope="0.000000" acceleration="0.000000"/>
    </timestep>
    <timestep time="1.000">
        <vehicle id="veh0" x="102.600000" y="-1.600000" angle="90.000000" type="leader" speed="2.600000" pos="102.600000" lane="e0_0" slope="0.000000" acceleration="2.600000"/>
        <vehicle id="veh1" x="2.600000" y="-1.600000" angle="90.000000" type="follower" speed="2.600000" pos="2.600000" lane="e0_0" slope="0.000000" acceleration="2.600000"/>
    </timestep>
    <timestep time="2.000">
        <vehicle id="veh0" x="107.600000" y="-1.600000" angle="90.000000" type="leader" speed="5.000000" pos="107.600000" lane="e0_0" slope="0.000000" acceleration="2.400000"/>
        <vehicle id="veh1" x="7.800000" y="-1.600000" angle="90.000000" type="follower" speed="5.200000" pos="7.800000" lane="e0_0" slope="0.000000" acceleration="2.600000"/>
    </timestep>
    <timestep time="3.000">
        <vehicle id="veh0" x="112.600000" y="-1.600000" angle="90.000000" type="leader" speed="5.000000" pos="112.600000" lane="e0_0" slope="0.000000" acceleration="0.000000"/>
        <vehicle id="veh1" x="15.600000" y="-1.600000" angle="90.000000" type="follower" speed="7.800000" pos="15.600000" lane="e0_0" slope="0.000000" acceleration="2.600000"/>
    </timestep>
    <timestep time="4.000">
        <vehicle id="veh0" x="117.600000" y="-1.600000" angle="90.000000" type="leader" speed="5.000000" pos="117.600000" lane="e0_0" slope="0.000000" acceleration="0.000000"/>
        <vehicle id="veh1" x="26.000000" y="-1.600000" angle="90.000000" type="follower" speed="10.400000" pos="26.000000" lane="e0_0" slope="0.000000" acceleration="2.600000"/>
    </timestep>
    <timestep time="5.000">
        <vehicle id="veh0" x="122.600000" y="-1.600000" angle="90.000000" type="leader" speed="5.000000" pos="122.600000" lane="e0_0" slope="0.000000" acceleration="0.000000"/>
        <vehicle id="veh1" x="39.000000" y="-1.600000" angle="90.000000" type="follower" speed="13.000000" pos="39.000000" lane="e0_0" slope="0.000000" acceleration="2.600000"/>
    </timestep>
    <timestep time="6.000">
        <vehicle id="veh0" x="127.600000" y="-1.600000" angle="90.000000" type="leader" speed="5.000000" pos="127.600000" lane="e0_0" slope="0.000000" acceleration="0.000000"/>
        <vehicle id="veh1" x="52.890000" y="-1.600000" angle="90.000000" type="follower" speed="13.890000" pos="52.890000" lane="e0_0" slope="0.000000" acceleration="0.890000"/>
    </timestep>
    <timestep time="7.000">
        <vehicle id="veh0" x="132.600000" y="-1.600000" angle="90.000000" type="leader" speed="5.000000" pos="132.600000" lane="e0_0" slope="0.000000" acceleration="0.000000"/>
        <vehicle id="veh1" x="66.780000" y="-1.600000" angle="90.000000" type="follower" speed="13.890000" pos="66.780000" lane="e0_0" slope="0.000000" acceleration="0.000000"/>
    </timestep>
    <timestep time="8.000">
        <vehicle id="veh0" x="137.600000" y="-1.600000" angle="90.000000" type="leader" speed="5.000000" pos="137.600000" lane="e0_0" slope="0.000000" acceleration="0.000000"/>
        <vehicle id="veh1" x="80.670000" y="-1.600000" angle="90.000000" type="follower" speed="13.890000" pos="80.670000" lane="e0_0" slope="0.000000" acceleration="0.000000"/>
    </timestep>
    <timestep time="9.000">
        <vehicle id="veh0" x="142.600000" y="-1.600000" angle="90.000000" type="leader" speed="5.000000" pos="142.600000" lane="e0_0" slope="0.000000" acceleration="0.000000"/>
        <vehicle id="veh1" x="94.560000" y="-1.600000" angle="90.000000" type="follower" speed="13.890000" pos="94.560000" lane="e0_0" slope="0.000000" acceleration="0.000000"/>
    </timestep>
    <timestep time="10.000">
        <vehicle id="veh0" x="147.600000" y="-1.600000" angle="90.000000" type="leader" speed="5.000000" pos="147.600000" lane="e0_0" slope="0.000000" acceleration="0.000000"/>
        <vehicle id="veh1" x="108.450000" y="-1.600000" angle="90.000000" type="follower" speed="13.890000" pos="108.450000" lane="e0_0" slope="0.000000" acceleration="0.000000"/>
    </timestep>
    <timestep time="11.000">
        <vehicle id="veh0" x="152.600000" y="-1.600000" angle="90.000000" type="leader" speed="5.000000" pos="152.600000" lane="e0_0" slope="0.000000" acceleration="0.000000"/>
        <vehicle id="veh1" x="122.340000" y="-1.600000" angle="90.000000" type="follower" speed="13.890000" pos="122.340000" lane="e0_0" slope="0.000000" acceleration="0.000000"/>
    </timestep>
    <timestep time="12.000">
        <vehicle id="veh0" x="157.600000" y="-1.600000" angle="90.000000" type="leader" speed="5.000000" pos="157.600000" lane="e0_0" slope="0.000000" acceleration="0.000000"/>
        <vehicle id="veh1" x="134.593000" y="-1.600000" angle="90.000000" type="follower" speed="12.253000" pos="134.593000" lane="e0_0" slope="0.000000" acceleration="-1.637000"/>
    </timestep>
    <timestep time="13.000">
        <vehicle id="veh0" x="162.600000" y="-1.600000" angle="90.000000" type="leader" speed="5.000000" pos="162.600000" lane="e0_0" slope="0.000000" acceleration="0.000000"/>
        <vehicle id="veh1" x="144.428333" y="-1.600000" angle="90.000000" type="follower" speed="9.835333" pos="144.428333" lane="e0_0" slope="0.000000" acceleration="-2.417667"/>
    </timestep>
    <timestep time="14.000">
        <vehicle id="veh0" x="167.600000" y="-1.600000" angle="90.000000" type="leader" speed="5.000000" pos="167.600000" lane="e0_0" slope="0.000000" acceleration="0.000000"/>
        <vehicle id="veh1" x="152.263667" y="-1.600000" angle="90.000000" type="follower" speed="7.835333" pos="152.263667" lane="e0_0" slope="0.000000" acceleration="-2.000000"/>
    </timestep>
    <timestep time="15.000">
        <vehicle id="veh0" x="172.600000" y="-1.600000" angle="90.000000" type="leader" speed="5.000000" pos="172.600000" lane="e0_0" slope="0.000000" acceleration="0.000000"/>
        <vehicle id="veh1" x="158.681333" y="-1.600000" angle="90.000000" type="follower" speed="6.417667" pos="158.681333" lane="e0_0" slope="0.000000" acceleration="-1.417667"/>
    </timestep>
    <timestep time="16.000">
        <vehicle id="veh0" x="177.600000" y="-1.600000" angle="90.000000" type="leader" speed="5.000000" pos="177.600000" lane="e0_0" slope="0.000000" acceleration="0.000000"/>
        <vehicle id="veh1" x="164.390167" y="-1.600000" angle="90.000000" type="follower" speed="5.708833" pos="164.390167" lane="e0_0" slope="0.000000" acceleration="-0.708833"/>
    </timestep>
    <timestep time="17.000">
        <vehicle id="veh0" x="182.600000" y="-1.600000" angle="90.000000" type="leader" speed="5.000000" pos="182.600000" lane="e0_0" slope="0.000000" acceleration="0.000000"/>
        <vehicle id="veh1" x="169.744583" y="-1.600000" angle="90.000000" type="follower" speed="5.354417" pos="169.744583" lane="e0_0" slope="0.000000" acceleration="-0.354417"/>
    </timestep>
    <timestep time="18.000">
        <vehicle id="veh0" x="187.600000" y="-1.600000" angle="90.000000" type="leader" speed="5.000000" pos="187.600000" lane="e0_0" slope="0.000000" acceleration="0.000000"/>
        <vehicle id="veh1" x="174.921792" y="-1.600000" angle="90.000000" type="follower" speed="5.177208" pos="174.921792" lane="e0_0" slope="0.000000" acceleration="-0.177208"/>
    </timestep>
    <timestep time="19.000">
        <vehicle id="veh0" x="192.600000" y="-1.600000" angle="90.000000" type="leader" speed="5.000000" pos="192.600000" lane="e0_0" slope="0.000000" acceleration="0.000000"/>
        <vehicle id="veh1" x="180.010396" y="-1.600000" angle="90.000000" type="follower" speed="5.088604" pos="180.010396" lane="e0_0" slope="0.000000" acceleration="-0.088604"/>
    </timestep>
    <timestep time="20.000">
        <vehicle id="veh0" x="197.600000" y="-1.600000" angle="90.000000" type="leader" speed="5.000000" pos="197.600000" lane="e0_0" slope="0.000000" acceleration="0.000000"/>
        <vehicle id="veh1" x="185.054698" y="-1.600000" angle="90.000000" type="follower" speed="5.044302" pos="185.054698" lane="e0_0" slope="0.000000" acceleration="-0.044302"/>
    </timestep>
    <timestep time="21.000">
        <vehicle id="veh0" x="202.600000" y="-1.600000" angle="90.000000" type="leader" speed="5.000000" pos="202.600000" lane="e0_0" slope="0.000000" acceleration="0.000000"/>
        <vehicle id="veh1" x="190.076849" y="-1.600000" angle="90.000000" type="follower" speed="5.022151" pos="190.076849" lane="e0_0" slope="0.000000" acceleration="-0.022151"/>
    </timestep>
    <timestep time="22.000">
        <vehicle id="veh0" x="207.600000" y="-1.600000" angle="90.000000" type="leader" speed="5.000000" pos="207.600000" lane="e0_0" slope="0.000000" acceleration="0.000000"/>
        <vehicle id="veh1" x="195.087924" y="-1.600000" angle="90.000000" type="follower" speed="5.011076" pos="195.087924" lane="e0_0" slope="0.000000" acceleration="-0.011076"/>
    </timestep>
    <timestep time="23.000">
        <vehicle id="veh0" x="212.600000" y="-1.600000" angle="90.000000" type="leader" speed="5.000000" pos="212.600000" lane="e0_0" slope="0.000000" acceleration="0.000000"/>
        <vehicle id="veh1" x="200.093462" y="-1.600000" angle="90.000000" type="follower" speed="5.005538" pos="200.093462" lane="e0_0" slope="0.000000" acceleration="-0.005538"/>
    </timestep>
    <timestep time="24.000">
        <vehicle id="veh0" x="217.600000" y="-1.600000" angle="90.000000" type="leader" speed="5.000000" pos="217.600000" lane="e0_0" slope="0.000000" acceleration="0.000000"/>
        <vehicle id="veh1" x="205.096231" y="-1.600000" angle="90.000000" type="follower" speed="5.002769" pos="205.096231" lane="e0_0" slope="0.000000" acceleration="-0.002769"/>
    </timestep>
    <timestep time="25.000">
        <vehicle id="veh0" x="222.600000" y="-1.600000" angle="90.000000" type="leader" speed="5.000000" pos="222.600000" lane="e0_0" slope="0.000000" acceleration="0.000000"/>
        <vehicle id="veh1" x="210.097616" y="-1.600000" angle="90.000000" type="follower" speed="5.001384" pos="210.097616" lane="e0_0" slope="0.000000" acceleration="-0.001384"/>
    </timestep>
    <timestep time="26.000">
        <vehicle id="veh0" x="227.600000" y="-1.600000" angle="90.000000" type="leader" speed="5.000000" pos="227.600000" lane="e0_0" slope="0.000000" acceleration="0.000000"/>
        <vehicle id="veh1" x="215.098308" y="-1.600000" angle="90.000000" type="follower" speed="5.000692" pos="215.098308" lane="e0_0" slope="0.000000" acceleration="-0.000692"/>
    </timestep>
    <timestep time="27.000">
        <vehicle id="veh0" x="232.600000" y="-1.600000" angle="90.000000" type="leader" speed="5.000000" pos="232.600000" lane="e0_0" slope="0.000000" acceleration="0.000000"/>
        <vehicle id="veh1" x="220.098654" y="-1.600000" angle="90.000000" type="follower" speed="5.000346" pos="220.098654" lane="e0_0" slope="0.000000" acceleration="-0.000346"/>
    </timestep>
    <timestep time="28.000">
        <vehicle id="veh0" x="237.600000" y="-1.600000" angle="90.000000" type="leader" speed="5.000000" pos="237.600000" lane="e0_0" slope="0.000000" acceleration="0.000000"/>
        <vehicle id="veh1" x="225.098827" y="-1.600000" angle="90.000000" type="follower" speed="5.000173" pos="225.098827" lane="e0_0" slope="0.000000" acceleration="-0.000173"/>
    </timestep>
    <timestep time="29.000">
        <vehicle id="veh0" x="242.600000" y="-1.600000" angle="90.000000" type="leader" speed="5.000000" pos="242.600000" lane="e0_0" slope="0.000000" acceleration="0.000000"/>
        <vehicle id="veh1" x="230.098913" y="-1.600000" angle="90.000000" type="follower" speed="5.000087" pos="230.098913" lane="e0_0" slope="0.000000" acceleration="-0.000087"/>
    </timestep>
    <timestep time="30.000">
        <vehicle id="veh0" x="247.600000" y="-1.600000" angle="90.000000" type="leader" speed="5.000000" pos="247.600000" lane="e0_0" slope="0.000000" acceleration="0.000000"/>
        <vehicle id="veh1" x="235.098957" y="-1.600000" angle="90.000000" type="follower" speed="5.000043" pos="235.098957" lane="e0_0" slope="0.000000" acceleration="-0.000043"/>
    </timestep>
    <timestep time="31.000">
        <vehicle id="veh0" x="252.600000" y="-1.600000" angle="90.000000" type="leader" speed="5.000000" pos="252.600000" lane="e0_0" slope="0.000000" acceleration="0.000000"/>
        <vehicle id="veh1" x="240.098978" y="-1.600000" angle="90.000000" type="follower" speed="5.000022" pos="240.098978" lane="e0_0" slope="0.000000" acceleration="-0.000022"/>
    </timestep>
    <timestep time="32.000">
        <vehicle id="veh0" x="257.600000" y="-1.600000" angle="90.000000" type="leader" speed="5.000000" pos="257.600000" lane="e0_0" slope="0.000000" acceleration="0.000000"/>
        <vehicle id="veh1" x="245.098989" y="-1.600000" angle="90.000000" type="follower" speed="5.000011" pos="245.098989" lane="e0_0" slope="0.000000" acceleration="-0.000011"/>
    </timestep>
    <timestep time="33.000">
        <vehicle id="veh0" x="262.600000" y="-1.600000" angle="90.000000" type="leader" speed="5.000000" pos="262.600000" lane="e0_0" slope="0.000000" acceleration="0.000000"/>
        <vehicle id="veh1" x="250.098995" y="-1.600000" angle="90.000000" type="follower" speed="5.000005" pos="250.098995" lane="e0_0" slope="0.000000" acceleration="-0.000005"/>
    </timestep>
    <timestep time="34.000">
        <vehicle id="veh0" x="267.600000" y="-1.600000" angle="90.000000" type="leader" speed="5.000000" pos="267.600000" lane="e0_0" slope="0.000000" acceleration="0.000000"/>
        <vehicle id="veh1" x="255.098997" y="-1.600000" angle="90.000000" type="follower" speed="5.000003" pos="255.098997" lane="e0_0" slope="0.000000" acceleration="-0.000003"/>
    </timestep>
    <timestep time="35.000">
        <vehicle id="veh0" x="272.600000" y="-1.600000" angle="90.000000" type="leader" speed="5.000000" pos="272.600000" lane="e0_0" slope="0.000000" acceleration="0.000000"/>
        <vehicle id="veh1" x="260.098999" y="-1.600000" angle="90.000000" type="follower" speed="5.000001" pos="260.098999" lane="e0_0" slope="0.000000" acceleration="-0.000001"/>
    </timestep>
    <timestep time="36.000">
        <vehicle id="veh0" x="277.600000" y="-1.600000" angle="90.000000" type="leader" speed="5.000000" pos="277.600000" lane="e0_0" slope="0.000000" acceleration="0.000000"/>
        <vehicle id="veh1" x="265.098999" y="-1.600000" angle="90.000000" type="follower" speed="5.000001" pos="265.098999" lane="e0_0" slope="0.000000" acceleration="-0.000001"/>
    </timestep>
    <timestep time="37.000">
        <vehicle id="veh0" x="282.600000" y="-1.600000" angle="90.000000" type="leader" speed="5.000000" pos="282.600000" lane="e0_0" slope="0.000000" acceleration="0.000000"/>
        <vehicle id="veh1" x="270.099000" y="-1.600000" angle="90.000000" type="follower" speed="5.000000" pos="270.099000" lane="e0_0" slope="0.000000" acceleration="-0.000000"/>
    </timestep>
    <timestep time="38.000">
        <vehicle id="veh0" x="287.600000" y="-1.600000" angle="90.000000" type="leader" speed="5.000000" pos="287.600000" lane="e0_0" slope="0.000000" acceleration="0.000000"/>
        <vehicle id="veh1" x="275.099000" y="-1.600000" angle="90.000000" type="follower" speed="5.000000" pos="275.099000" lane="e0_0" slope="0.000000" acceleration="-0.000000"/>
    </timestep>
    <timestep time="39.000">
        <vehicle id="veh0" x="292.600000" y="-1.600000" angle="90.000000" type="leader" speed="5.000000" pos="292.600000" lane="e0_0" slope="0.000000" acceleration="0.000000"/>
        <vehicle id="veh1" x="280.099000" y="-1.600000" angle="90.000000" type="follower" speed="5.000000" pos="280.099000" lane="e0_0" slope="0.000000" acceleration="-0.000000"/>
    </timestep>
    <timestep time="40.000">
        <vehicle id="veh0" x="297.600000" y="-1.600000" angle="90.000000" type="leader" speed="5.000000" pos="297.600000" lane="e0_0" slope="0.000000" acceleration="0.000000"/>
        <vehicle id="veh1" x="285.099000" y="-1.600000" angle="90.000000" type="follower" speed="5.000000" pos="285.099000" lane="e0_0" slope="0.000000" acceleration="-0.000000"/>
    </timestep>
    <timestep time="41.000">
        <vehicle id="veh0" x="302.600000" y="-1.600000" angle="90.000000" type="leader" speed="5.000000" pos="302.600000" lane="e0_0" slope="0.000000" acceleration="0.000000"/>
        <vehicle id="veh1" x="290.099000" y="-1.600000" angle="90.000000" type="follower" speed="5.000000" pos="290.099000" lane="e0_0" slope="0.000000" acceleration="-0.000000"/>
    </timestep>
    <timestep time="42.000">
        <vehicle id="veh0" x="307.600000" y="-1.600000" angle="90.000000" type="leader" speed="5.000000" pos="307.600000" lane="e0_0" slope="0.000000" acceleration="0.000000"/>
        <vehicle id="veh1" x="295.099000" y="-1.600000" angle="90.000000" type="follower" speed="5.000000" pos="295.099000" lane="e0_0" slope="0.000000" acceleration="-0.000000"/>
    </timestep>
    <timestep time="43.000">
        <vehicle id="veh0" x="312.600000" y="-1.600000" angle="90.000000" type="leader" speed="5.000000" pos="312.600000" lane="e0_0" slope="0.000000" acceleration="0.000000"/>
        <vehicle id="veh1" x="300.099000" y="-1.600000" angle="90.000000" type="follower" speed="5.000000" pos="300.099000" lane="e0_0" slope="0.000000" acceleration="-0.000000"/>
    </timestep>
    <timestep time="44.000">
        <vehicle id="veh0" x="317.600000" y="-1.600000" angle="90.000000" type="leader" speed="5.000000" pos="317.600000" lane="e0_0" slope="0.000000" acceleration="0.000000"/>
        <vehicle id="veh1" x="305.099000" y="-1.600000" angle="90.000000" type="follower" speed="5.000000" pos="305.099000" lane="e0_0" slope="0.000000" acceleration="-0.000000"/>
    </timestep>
    <timestep time="45.000">
        <vehicle id="veh0" x="322.600000" y="-1.600000" angle="90.000000" type="leader" speed="5.000000" pos="322.600000" lane="e0_0" slope="0.000000" acceleration="0.000000"/>
        <vehicle id="veh1" x="310.099000" y="-1.600000" angle="90.000000" type="follower" speed="5.000000" pos="310.099000" lane="e0_0" slope="0.000000" acceleration="-0.000000"/>
    </timestep>
    <timestep time="46.000">
        <vehicle id="veh0" x="327.600000" y="-1.600000" angle="90.000000" type="leader" speed="5.000000" pos="327.600000" lane="e0_0" slope="0.000000" acceleration="0.000000"/>
        <vehicle id="veh1" x="315.099000" y="-1.600000" angle="90.000000" type="follower" speed="5.000000" pos="315.099000" lane="e0_0" slope="0.000000" acceleration="-0.000000"/>
    </timestep>
    <timestep time="47.000">
        <vehicle id="veh0" x="332.600000" y="-1.600000" angle="90.000000" type="leader" speed="5.000000" pos="332.600000" lane="e0_0" slope="0.000000" acceleration="0.000000"/>
        <vehicle id="veh1" x="320.099000" y="-1.600000" angle="90.000000" type="follower" speed="5.000000" pos="320.099000" lane="e0_0" slope="0.000000" acceleration="-0.000000"/>
    </timestep>
    <timestep time="48.000">
        <vehicle id="veh0" x="337.600000" y="-1.600000" angle="90.000000" type="leader" speed="5.000000" pos="337.600000" lane="e0_0" slope="0.000000" acceleration="0.000000"/>
        <vehicle id="veh1" x="325.099000" y="-1.600000" angle="90.000000" type="follower" speed="5.000000" pos="325.099000" lane="e0_0" slope="0.000000" acceleration="-0.000000"/>
    </timestep>
    <timestep time="49.000">
        <vehicle id="veh0" x="342.600000" y="-1.600000" angle="90.000000" type="leader" speed="5.000000" pos="342.600000" lane="e0_0" slope="0.000000" acceleration="0.000000"/>
        <vehicle id="veh1" x="330.099000" y="-1.600000" angle="90.000000" type="follower" speed="5.000000" pos="330.099000" lane="e0_0" slope="0.000000" acceleration="-0.000000"/>
    </timestep>
    <timestep time="50.000">
        <vehicle id="veh0" x="347.600000" y="-1.600000" angle="90.000000" type="leader" speed="5.000000" pos="347.600000" lane="e0_0" slope="0.000000" acceleration="0.000000"/>
        <vehicle id="veh1" x="335.099000" y="-1.600000" angle="90.000000" type="follower" speed="5.000000" pos="335.099000" lane="e0_0" slope="0.000000" acceleration="-0.000000"/>
    </timestep>
    <timestep time="51.000">
        <vehicle id="veh0" x="352.600000" y="-1.600000" angle="90.000000" type="leader" speed="5.000000" pos="352.600000" lane="e0_0" slope="0.000000" acceleration="0.000000"/>
        <vehicle id="veh1" x="340.099000" y="-1.600000" angle="90.000000" type="follower" speed="5.000000" pos="340.099000" lane="e0_0" slope="0.000000" acceleration="-0.000000"/>
    </timestep>
    <timestep time="52.000">
        <vehicle id="veh0" x="357.600000" y="-1.600000" angle="90.000000" type="leader" speed="5.000000" pos="357.600000" lane="e0_0" slope="0.000000" acceleration="0.000000"/>
        <vehicle id="veh1" x="345.099000" y="-1.600000" angle="90.000000" type="follower" speed="5.000000" pos="345.099000" lane="e0_0" slope="0.000000" acceleration="-0.000000"/>
    </timestep>
    <timestep time="53.000">
        <vehicle id="veh0" x="362.600000" y="-1.600000" angle="90.000000" type="leader" speed="5.000000" pos="362.600000" lane="e0_0" slope="0.000000" acceleration="0.000000"/>
        <vehicle id="veh1" x="350.099000" y="-1.600000" angle="90.000000" type="follower" speed="5.000000" pos="350.099000" lane="e0_0" slope="0.000000" acceleration="-0.000000"/>
    </timestep>
    <timestep time="54.000">
        <vehicle id="veh0" x="367.600000" y="-1.600000" angle="90.000000" type="leader" speed="5.000000" pos="367.600000" lane="e0_0" slope="0.000000" acceleration="0.000000"/>
        <vehicle id="veh1" x="355.099000" y="-1.600000" angle="90.000000" type="follower" speed="5.000000" pos="355.099000" lane="e0_0" slope="0.000000" acceleration="-0.000000"/>
    </timestep>
    <timestep time="55.000">
        <vehicle id="veh0" x="372.600000" y="-1.600000" angle="90.000000" type="leader" speed="5.000000" pos="372.600000" lane="e0_0" slope="0.000000" acceleration="0.000000"/>
        <vehicle id="veh1" x="360.099000" y="-1.600000" angle="90.000000" type="follower" speed="5.000000" pos="360.099000" lane="e0_0" slope="0.000000" acceleration="-0.000000"/>
    </timestep>
    <timestep time="56.000">
        <vehicle id="veh0" x="377.600000" y="-1.600000" angle="90.000000" type="leader" speed="5.000000" pos="377.600000" lane="e0_0" slope="0.000000" acceleration="0.000000"/>
        <vehicle id="veh1" x="365.099000" y="-1.600000" angle="90.000000" type="follower" speed="5.000000" pos="365.099000" lane="e0_0" slope="0.000000" acceleration="-0.000000"/>
    </timestep>
    <timestep time="57.000">
        <vehicle id="veh0" x="382.600000" y="-1.600000" angle="90.000000" type="leader" speed="5.000000" pos="382.600000" lane="e0_0" slope="0.000000" acceleration="0.000000"/>
        <vehicle id="veh1" x="370.099000" y="-1.600000" angle="90.000000" type="follower" speed="5.000000" pos="370.099000" lane="e0_0" slope="0.000000" acceleration="-0.000000"/>
    </timestep>
    <timestep time="58.000">
        <vehicle id="veh0" x="387.600000" y="-1.600000" angle="90.000000" type="leader" speed="5.000000" pos="387.600000" lane="e0_0" slope="0.000000" acceleration="0.000000"/>
        <vehicle id="veh1" x="375.099000" y="-1.600000" angle="90.000000" type="follower" speed="5.000000" pos="375.099000" lane="e0_0" slope="0.000000" acceleration="-0.000000"/>
    </timestep>
    <timestep time="59.000">
        <vehicle id="veh0" x="392.600000" y="-1.600000" angle="90.000000" type="leader" speed="5.000000" pos="392.600000" lane="e0_0" slope="0.000000" acceleration="0.000000"/>
        <vehicle id="veh1" x="380.099000" y="-1.600000" angle="90.000000" type="follower" speed="5.000000" pos="380.099000" lane="e0_0" slope="0.000000" acceleration="-0.000000"/>
    </timestep>
    <timestep time="60.000">
        <vehicle id="veh0" x="397.600000" y="-1.600000" angle="90.000000" type="leader" speed="5.000000" pos="397.600000" lane="e0_0" slope="0.000000" acceleration="0.000000"/>
        <vehicle id="veh1" x="385.099000" y="-1.600000" angle="90.000000" type="follower" speed="5.000000" pos="385.099000" lane="e0_0" slope="0.000000" acceleration="-0.000000"/>
    </timestep>
    <timestep time="61.000">
        <vehicle id="veh0" x="402.600000" y="-1.600000" angle="90.000000" type="leader" speed="5.000000" pos="402.600000" lane="e0_0" slope="0.000000" acceleration="0.000000"/>
        <vehicle id="veh1" x="390.099000" y="-1.600000" angle="90.000000" type="follower" speed="5.000000" pos="390.099000" lane="e0_0" slope="0.000000" acceleration="-0.000000"/>
    </timestep>
    <timestep time="62.000">
        <vehicle id="veh0" x="407.600000" y="-1.600000" angle="90.000000" type="leader" speed="5.000000" pos="407.600000" lane="e0_0" slope="0.000000" acceleration="0.000000"/>
        <vehicle id="veh1" x="395.099000" y="-1.600000" angle="90.000000" type="follower" speed="5.000000" pos="395.099000" lane="e0_0" slope="0.000000" acceleration="0.000000"/>
    </timestep>
    <timestep time="63.000">
        <vehicle id="veh0" x="412.600000" y="-1.600000" angle="90.000000" type="leader" speed="5.000000" pos="412.600000" lane="e0_0" slope="0.000000" acceleration="0.000000"/>
        <vehicle id="veh1" x="400.099000" y="-1.600000" angle="90.000000" type="follower" speed="5.000000" pos="400.099000" lane="e0_0" slope="0.000000" acceleration="0.000000"/>
    </timestep>
    <timestep time="64.000">
        <vehicle id="veh0" x="417.600000" y="-1.600000" angle="90.000000" type="leader" speed="5.000000" pos="417.600000" lane="e0_0" slope="0.000000" acceleration="0.000000"/>
        <vehicle id="veh1" x="405.099000" y="-1.600000" angle="90.000000" type="follower" speed="5.000000" pos="405.099000" lane="e0_0" slope="0.000000" acceleration="0.000000"/>
    </timestep>
    <timestep time="65.000">
        <vehicle id="veh0" x="422.600000" y="-1.600000" angle="90.000000" type="leader" speed="5.000000" pos="422.600000" lane="e0_0" slope="0.000000" acceleration="0.000000"/>
        <vehicle id="veh1" x="410.099000" y="-1.600000" angle="90.000000" type="follower" speed="5.000000" pos="410.099000" lane="e0_0" slope="0.000000" acceleration="0.000000"/>
    </timestep>
    <timestep time="66.000">
        <vehicle id="veh0" x="427.600000" y="-1.600000" angle="90.000000" type="leader" speed="5.000000" pos="427.600000" lane="e0_0" slope="0.000000" acceleration="0.000000"/>
        <vehicle id="veh1" x="415.099000" y="-1.600000" angle="90.000000" type="follower" speed="5.000000" pos="415.099000" lane="e0_0" slope="0.000000" acceleration="0.000000"/>
    </timestep>
    <timestep time="67.000">
        <vehicle id="veh0" x="432.600000" y="-1.600000" angle="90.000000" type="leader" speed="5.000000" pos="432.600000" lane="e0_0" slope="0.000000" acceleration="0.000000"/>
        <vehicle id="veh1" x="420.099000" y="-1.600000" angle="90.000000" type="follower" speed="5.000000" pos="420.099000" lane="e0_0" slope="0.000000" acceleration="0.000000"/>
    </timestep>
    <timestep time="68.000">
        <vehicle id="veh0" x="437.600000" y="-1.600000" angle="90.000000" type="leader" speed="5.000000" pos="437.600000" lane="e0_0" slope="0.000000" acceleration="0.000000"/>
        <vehicle id="veh1" x="425.099000" y="-1.600000" angle="90.000000" type="follower" speed="5.000000" pos="425.099000" lane="e0_0" slope="0.000000" acceleration="0.000000"/>
    </timestep>
    <timestep time="69.000">
        <vehicle id="veh0" x="442.600000" y="-1.600000" angle="90.000000" type="leader" speed="5.000000" pos="442.600000" lane="e0_0" slope="0.000000" acceleration="0.000000"/>
        <vehicle id="veh1" x="430.099000" y="-1.600000" angle="90.000000" type="follower" speed="5.000000" pos="430.099000" lane="e0_0" slope="0.000000" acceleration="0.000000"/>
    </timestep>
    <timestep time="70.000">
        <vehicle id="veh0" x="447.600000" y="-1.600000" angle="90.000000" type="leader" speed="5.000000" pos="447.600000" lane="e0_0" slope="0.000000" acceleration="0.000000"/>
        <vehicle id="veh1" x="435.099000" y="-1.600000" angle="90.000000" type="follower" speed="5.000000" pos="435.099000" lane="e0_0" slope="0.000000" acceleration="0.000000"/>
    </timestep>
    <timestep time="71.000">