<?xml version="1.0" encoding="UTF-8"?>

<!-- generated on 2026-07-08 15:03:14 by Eclipse SUMO sumo Version 1.20.0
<configuration xmlns:xsi="http://www.w3.org/2001/XMLSchema-instance" xsi:noNamespaceSchemaLocation="http://sumo.dlr.de/xsd/sumoConfiguration.xsd">

    <input>
        <net-file value="net.net.xml"/>
        <route-files value="rou.rou.xml"/>
    </input>

    <output>
        <summary-output value="summary.xml"/>
        <tripinfo-output value="tripinfo.xml"/>
    </output>

    <time>
        <begin value="0"/>
        <end value="900"/>
        <step-length value="1"/>
    </time>

    <processing>
        <step-method.ballistic value="false"/>
        <time-to-teleport value="-1"/>
        <default.action-step-length value="1"/>
        <default.speeddev value="0"/>
    </processing>

    <report>
        <no-step-log value="true"/>
    </report>

    <random_number>
        <seed value="42"/>
    </random_number>

</configuration>
-->

<tripinfos xmlns:xsi="http://www.w3.org/2001/XMLSchema-instance" xsi:noNamespaceSchemaLocation="http://sumo.dlr.de/xsd/tripinfo_file.xsd">
    <tripinfo id="1" depart="2.00" departLane="G3G2_0" departPos="5.10" departSpeed="0.00" departDelay="0.76" arrival="151.00" arrivalLane="F1G1_0" arrivalPos="485.60" arrivalSpeed="13.89" duration="149.00" routeLength="1965.40" waitingTime="0.00" waitingCount="0" stopTime="0.00" timeLoss="6.17" rerouteNo="0" devices="tripinfo_1" vType="DEFAULT_VEHTYPE" speedFactor="1.00" vaporized=""/>
    <tripinfo id="13" depart="17.00" departLane="C19C18_0" departPos="5.10" departSpeed="0.00" departDelay="0.82" arrival="165.00" arrivalLane="C20C21_0" arrivalPos="485.60" arrivalSpeed="13.89" duration="148.00" routeLength="1970.77" waitingTime="0.00" waitingCount="0" stopTime="0.00" timeLoss="5.23" rerouteNo="0" devices="tripinfo_13" vType="DEFAULT_VEHTYPE" speedFactor="1.00" vaporized=""/>
    <tripinfo id="44" depart="55.00" departLane="C18C17_0" departPos="5.10" departSpeed="0.00" departDelay="0.23" arrival="168.00" arrivalLane="B17C17_0" arrivalPos="485.60" arrivalSpeed="13.89" duration="113.00" routeLength="1465.40" waitingTime="0.00" waitingCount="0" stopTime="0.00" timeLoss="6.16" rerouteNo="0" devices="tripinfo_44" vType="DEFAULT_VEHTYPE" speedFactor="1.00" vaporized=""/>
    <tripinfo id="84" depart="105.00" departLane="F16E16_0" departPos="5.10" departSpeed="0.00" departDelay="0.44" arrival="255.00" arrivalLane="D17E17_0" arrivalPos="485.60" arrivalSpeed="13.89" duration="150.00" routeLength="1969.76" waitingTime="0.00" waitingCount="0" stopTime="0.00" timeLoss="6.30" rerouteNo="0" devices="tripinfo_84" vType="DEFAULT_VEHTYPE" speedFactor="1.00" vaporized=""/>
    <tripinfo id="57" depart="71.00" departLane="V2W2_0" departPos="5.10" departSpeed="0.00" departDelay="0.05" arrival="261.00" arrivalLane="U3T3_0" arrivalPos="485.60" arrivalSpeed="13.89" duration="190.00" routeLength="2465.20" waitingTime="0.00" waitingCount="0" stopTime="0.00" timeLoss="9.90" rerouteNo="0" devices="tripinfo_57" vType="DEFAULT_VEHTYPE" speedFactor="1.00" vaporized=""/>
    <tripinfo id="89" depart="111.00" departLane="K14J14_0" departPos="5.10" departSpeed="0.00" departDelay="0.22" arrival="262.00" arrivalLane="L14L15_0" arrivalPos="485.60" arrivalSpeed="13.89" duration="151.00" routeLength="1970.56" waitingTime="0.00" waitingCount="0" stopTime="0.00" timeLoss="7.27" rerouteNo="0" devices="tripinfo_89" vType="DEFAULT_VEHTYPE" speedFactor="1.00" vaporized=""/>
    <tripinfo id="31" depart="39.00" departLane="N17M17_0" departPos="5.10" departSpeed="0.00" departDelay="0.41" arrival="265.00" arrivalLane="Q17P17_0" arrivalPos="485.60" arrivalSpeed="13.89" duration="226.00" routeLength="2961.04" waitingTime="0.00" waitingCount="0" stopTime="0.00" timeLoss="10.42" rerouteNo="0" devices="tripinfo_31" vType="DEFAULT_VEHTYPE" speedFactor="1.00" vaporized=""/>
    <tripinfo id="100" depart="125.00" departLane="X0X1_0" departPos="5.10" departSpeed="0.00" departDelay="0.52" arrival="278.00" arrivalLane="W0W1_0" arrivalPos="485.60" arrivalSpeed="13.89" duration="153.00" routeLength="1965.58" waitingTime="0.00" waitingCount="0" stopTime="0.00" timeLoss="8.79" rerouteNo="0" devices="tripinfo_100" vType="DEFAULT_VEHTYPE" speedFactor="1.00" vaporized=""/>
    <tripinfo id="17" depart="22.00" departLane="J12J13_0" departPos="5.10" departSpeed="0.00" departDelay="0.84" arrival="282.00" arrivalLane="N14N13_0" arrivalPos="485.60" arrivalSpeed="13.89" duration="260.00" routeLength="3469.76" waitingTime="0.00" waitingCount="0" stopTime="0.00" timeLoss="8.53" rerouteNo="0" devices="tripinfo_17" vType="DEFAULT_VEHTYPE" speedFactor="1.00" vaporized=""/>
    <tripinfo id="64" depart="80.00" departLane="U7U8_0" departPos="5.10" departSpeed="0.00" departDelay="0.34" arrival="303.00" arrivalLane="T5S5_0" arrivalPos="485.60" arrivalSpeed="13.89" duration="223.00" routeLength="2965.40" waitingTime="0.00" waitingCount="0" stopTime="0.00" timeLoss="7.98" rerouteNo="0" devices="tripinfo_64" vType="DEFAULT_VEHTYPE" speedFactor="1.00" vaporized=""/>
    <tripinfo id="130" depart="162.00" departLane="U8U9_0" departPos="5.10" departSpeed="0.00" departDelay="0.18" arrival="312.00" arrivalLane="U7V7_0" arrivalPos="485.60" arrivalSpeed="13.89" duration="150.00" routeLength="1970.57" waitingTime="0.00" waitingCount="0" stopTime="0.00" timeLoss="6.59" rerouteNo="0" devices="tripinfo_130" vType="DEFAULT_VEHTYPE" speedFactor="1.00" vaporized=""/>
    <tripinfo id="127" depart="159.00" departLane="X8X9_0" departPos="5.10" departSpeed="0.00" departDelay="0.92" arrival="314.00" arrivalLane="X7W7_0" arrivalPos="485.60" arrivalSpeed="13.89" duration="155.00" routeLength="1965.40" waitingTime="4.00" waitingCount="1" stopTime="0.00" timeLoss="11.39" rerouteNo="0" devices="tripinfo_127" vType="DEFAULT_VEHTYPE" speedFactor="1.00" vaporized=""/>
    <tripinfo id="107" depart="134.00" departLane="W3X3_0" departPos="5.10" departSpeed="0.00" departDelay="0.81" arrival="320.00" arrivalLane="X6X5_0" arrivalPos="485.60" arrivalSpeed="13.89" duration="186.00" routeLength="2470.56" waitingTime="0.00" waitingCount="0" stopTime="0.00" timeLoss="6.41" rerouteNo="0" devices="tripinfo_107" vType="DEFAULT_VEHTYPE" speedFactor="1.00" vaporized=""/>
    <tripinfo id="6" depart="8.00" departLane="A6A5_0" departPos="5.10" departSpeed="0.00" departDelay="0.53" arrival="343.00" arrivalLane="E8E7_0" arrivalPos="485.60" arrivalSpeed="13.89" duration="335.00" routeLength="4460.03" waitingTime="0.00" waitingCount="0" stopTime="0.00" timeLoss="11.50" rerouteNo="0" devices="tripinfo_6" vType="DEFAULT_VEHTYPE" speedFactor="1.00" vaporized=""/>
    <tripinfo id="15" depart="19.00" departLane="T14T13_0" departPos="5.10" departSpeed="0.00" departDelay="0.33" arrival="349.00" arrivalLane="R18R19_0" arrivalPos="485.60" arrivalSpeed="13.89" duration="330.00" routeLength="4469.76" waitingTime="0.00" waitingCount="0" stopTime="0.00" timeLoss="6.57" rerouteNo="0" devices="tripinfo_15" vType="DEFAULT_VEHTYPE" speedFactor="1.00" vaporized=""/>
    <tripinfo id="106" depart="132.00" departLane="K8K9_0" departPos="5.10" departSpeed="0.00" departDelay="0.06" arrival="351.00" arrivalLane="K13L13_0" arrivalPos="485.60" arrivalSpeed="13.89" duration="219.00" routeLength="2975.13" waitingTime="0.00" waitingCount="0" stopTime="0.00" timeLoss="3.45" rerouteNo="0" devices="tripinfo_106" vType="DEFAULT_VEHTYPE" speedFactor="1.00" vaporized=""/>
    <tripinfo id="18" depart="23.00" departLane="T3U3_0" departPos="5.10" departSpeed="0.00" departDelay="0.59" arrival="360.00" arrivalLane="O4P4_0" arrivalPos="485.60" arrivalSpeed="13.89" duration="337.00" routeLength="4460.03" waitingTime="0.00" waitingCount="0" stopTime="0.00" timeLoss="13.28" rerouteNo="0" devices="tripinfo_18" vType="DEFAULT_VEHTYPE" speedFactor="1.00" vaporized=""/>
    <tripinfo id="245" depart="305.00" departLane="F19F18_0" departPos="5.10" departSpeed="0.00" departDelay="0.03" arrival="380.00" arrivalLane="F18G18_0" arrivalPos="485.60" arrivalSpeed="13.89" duration="75.00" routeLength="980.30" waitingTime="0.00" waitingCount="0" stopTime="0.00" timeLoss="3.66" rerouteNo="0" devices="tripinfo_245" vType="DEFAULT_VEHTYPE" speedFactor="1.00" vaporized=""/>
    <tripinfo id="132" depart="165.00" departLane="T6S6_0" departPos="5.10" departSpeed="0.00" departDelay="0.69" arrival="389.00" arrivalLane="Q4R4_0" arrivalPos="485.60" arrivalSpeed="13.89" duration="224.00" routeLength="2965.19" waitingTime="0.00" waitingCount="0" stopTime="0.00" timeLoss="8.34" rerouteNo="0" devices="tripinfo_132" vType="DEFAULT_VEHTYPE" speedFactor="1.00" vaporized=""/>
    <tripinfo id="76" depart="95.00" departLane="K21J21_0" departPos="5.10" departSpeed="0.00" departDelay="0.40" arrival="393.00" arrivalLane="M18N18_0" arrivalPos="485.60" arrivalSpeed="13.89" duration="298.00" routeLength="3965.20" waitingTime="0.00" waitingCount="0" stopTime="0.00" timeLoss="9.49" rerouteNo="0" devices="tripinfo_76" vType="DEFAULT_VEHTYPE" speedFactor="1.00" vaporized=""/>
    <tripinfo id="2" depart="3.00" departLane="R21R20_0" departPos="5.10" departSpeed="0.00" departDelay="0.51" arrival="404.00" arrivalLane="Q12R12_0" arrivalPos="485.60" arrivalSpeed="13.89" duration="401.00" routeLength="5465.40" waitingTime="0.00" waitingCount="0" stopTime="0.00" timeLoss="6.19" rerouteNo="0" devices="tripinfo_2" vType="DEFAULT_VEHTYPE" speedFactor="1.00" vaporized=""/>
    <tripinfo id="29" depart="37.00" departLane="E11E10_0" departPos="5.10" departSpeed="0.00" departDelay="0.90" arrival="410.00" arrivalLane="J13I13_0" arrivalPos="485.60" arrivalSpeed="13.89" duration="373.00" routeLength="4955.67" waitingTime="0.00" waitingCount="0" stopTime="0.00" timeLoss="13.28" rerouteNo="0" devices="tripinfo_29" vType="DEFAULT_VEHTYPE" speedFactor="1.00" vaporized=""/>
    <tripinfo id="42" depart="53.00" departLane="J23I23_0" departPos="5.10" departSpeed="0.00" departDelay="0.72" arrival="420.00" arrivalLane="F18G18_0" arrivalPos="485.60" arrivalSpeed="13.89" duration="367.00" routeLength="4965.20" waitingTime="0.00" waitingCount="0" stopTime="0.00" timeLoss="7.57" rerouteNo="0" devices="tripinfo_42" vType="DEFAULT_VEHTYPE" speedFactor="1.00" vaporized=""/>
    <tripinfo id="40" depart="50.00" departLane="N19N20_0" departPos="5.10" departSpeed="0.00" departDelay="0.21" arrival="424.00" arrivalLane="G19G18_0" arrivalPos="485.60" arrivalSpeed="13.89" duration="374.00" routeLength="4965.19" waitingTime="0.00" waitingCount="0" stopTime="0.00" timeLoss="14.17" rerouteNo="0" devices="tripinfo_40" vType="DEFAULT_VEHTYPE" speedFactor="1.00" vaporized=""/>
    <tripinfo id="72" depart="90.00" departLane="K13L13_0" departPos="5.10" departSpeed="0.00" departDelay="0.38" arrival="425.00" arrivalLane="F14F15_0" arrivalPos="485.60" arrivalSpeed="13.89" duration="335.00" routeLength="4465.40" waitingTime="0.00" waitingCount="0" stopTime="0.00" timeLoss="11.63" rerouteNo="0" devices="tripinfo_72" vType="DEFAULT_VEHTYPE" speedFactor="1.00" vaporized=""/>
    <tripinfo id="25" depart="32.00" departLane="I8J8_0" departPos="5.10" departSpeed="0.00" departDelay="0.88" arrival="439.00" arrivalLane="F13F12_0" arrivalPos="485.60" arrivalSpeed="13.89" duration="407.00" routeLength="5455.67" waitingTime="0.00" waitingCount="0" stopTime="0.00" timeLoss="12.15" rerouteNo="0" devices="tripinfo_25" vType="DEFAULT_VEHTYPE" speedFactor="1.00" vaporized=""/>
    <tripinfo id="116" depart="145.00" departLane="O14O15_0" departPos="5.10" departSpeed="0.00" departDelay="0.61" arrival="445.00" arrivalLane="Q11R11_0" arrivalPos="485.60" arrivalSpeed="13.89" duration="300.00" routeLength="3969.56" waitingTime="3.00" waitingCount="1" stopTime="0.00" timeLoss="12.25" rerouteNo="0" devices="tripinfo_116" vType="DEFAULT_VEHTYPE" speedFactor="1.00" vaporized=""/>
    <tripinfo id="120" depart="150.00" departLane="K11K12_0" departPos="5.10" departSpeed="0.00" departDelay="0.63" arrival="447.00" arrivalLane="N9M9_0" arrivalPos="485.60" arrivalSpeed="13.89" duration="297.00" routeLength="3964.39" waitingTime="0.00" waitingCount="0" stopTime="0.00" timeLoss="9.17" rerouteNo="0" devices="tripinfo_120" vType="DEFAULT_VEHTYPE" speedFactor="1.00" vaporized=""/>
    <tripinfo id="271" depart="338.00" departLane="C5B5_0" departPos="5.10" departSpeed="0.00" departDelay="0.67" arrival="450.00" arrivalLane="A5A6_0" arrivalPos="485.60" arrivalSpeed="13.89" duration="112.00" routeLength="1475.13" waitingTime="0.00" waitingCount="0" stopTime="0.00" timeLoss="4.63" rerouteNo="0" devices="tripinfo_271" vType="DEFAULT_VEHTYPE" speedFactor="1.00" vaporized=""/>
    <tripinfo id="37" depart="47.00" departLane="P23Q23_0" departPos="5.10" departSpeed="0.00" departDelay="0.94" arrival="451.00" arrivalLane="J21I21_0" arrivalPos="485.60" arrivalSpeed="13.89" duration="404.00" routeLength="5465.20" waitingTime="0.00" waitingCount="0" stopTime="0.00" timeLoss="7.85" rerouteNo="0" devices="tripinfo_37" vType="DEFAULT_VEHTYPE" speedFactor="1.00" vaporized=""/>
    <tripinfo id="186" depart="232.00" departLane="R2R3_0" departPos="5.10" departSpeed="0.00" departDelay="0.47" arrival="454.00" arrivalLane="Q0P0_0" arrivalPos="485.60" arrivalSpeed="13.89" duration="222.00" routeLength="2965.40" waitingTime="0.00" waitingCount="0" stopTime="0.00" timeLoss="6.71" rerouteNo="0" devices="tripinfo_186" vType="DEFAULT_VEHTYPE" speedFactor="1.00" vaporized=""/>
    <tripinfo id="99" depart="124.00" departLane="X9X10_0" departPos="5.10" departSpeed="0.00" departDelay="0.77" arrival="459.00" arrivalLane="T7T6_0" arrivalPos="485.60" arrivalSpeed="13.89" duration="335.00" routeLength="4465.19" waitingTime="0.00" waitingCount="0" stopTime="0.00" timeLoss="11.17" rerouteNo="0" devices="tripinfo_99" vType="DEFAULT_VEHTYPE" speedFactor="1.00" vaporized=""/>
    <tripinfo id="78" depart="98.00" departLane="I13J13_0" departPos="5.10" departSpeed="0.00" departDelay="0.91" arrival="468.00" arrivalLane="O10P10_0" arrivalPos="485.60" arrivalSpeed="13.89" duration="370.00" routeLength="4974.93" waitingTime="0.00" waitingCount="0" stopTime="0.00" timeLoss="9.53" rerouteNo="0" devices="tripinfo_78" vType="DEFAULT_VEHTYPE" speedFactor="1.00" vaporized=""/>
    <tripinfo id="32" depart="40.00" departLane="U10U9_0" departPos="5.10" departSpeed="0.00" departDelay="0.17" arrival="478.00" arrivalLane="S1S2_0" arrivalPos="485.60" arrivalSpeed="13.89" duration="438.00" routeLength="5969.76" waitingTime="0.00" waitingCount="0" stopTime="0.00" timeLoss="6.60" rerouteNo="0" devices="tripinfo_32" vType="DEFAULT_VEHTYPE" speedFactor="1.00" vaporized=""/>
    <tripinfo id="90" depart="113.00" departLane="R18Q18_0" departPos="5.10" departSpeed="0.00" departDelay="0.97" arrival="478.00" arrivalLane="Q10R10_0" arrivalPos="485.60" arrivalSpeed="13.89" duration="365.00" routeLength="4980.09" waitingTime="0.00" waitingCount="0" stopTime="0.00" timeLoss="4.84" rerouteNo="0" devices="tripinfo_90" vType="DEFAULT_VEHTYPE" speedFactor="1.00" vaporized=""/>
    <tripinfo id="7" depart="9.00" departLane="P20P19_0" departPos="5.10" departSpeed="0.00" departDelay="0.29" arrival="483.00" arrivalLane="N10N9_0" arrivalPos="485.60" arrivalSpeed="13.89" duration="474.00" routeLength="6474.92" waitingTime="0.00" waitingCount="0" stopTime="0.00" timeLoss="6.25" rerouteNo="0" devices="tripinfo_7" vType="DEFAULT_VEHTYPE" speedFactor="1.00" vaporized=""/>
    <tripinfo id="58" depart="73.00" departLane="H15H14_0" departPos="5.10" departSpeed="0.00" departDelay="0.80" arrival="484.00" arrivalLane="P15P14_0" arrivalPos="485.60" arrivalSpeed="13.89" duration="411.00" routeLength="5460.03" waitingTime="0.00" waitingCount="0" stopTime="0.00" timeLoss="15.50" rerouteNo="0" devices="tripinfo_58" vType="DEFAULT_VEHTYPE" speedFactor="1.00" vaporized=""/>
    <tripinfo id="39" depart="49.00" departLane="G1G0_0" departPos="5.10" departSpeed="0.00" departDelay="0.45" arrival="485.00" arrivalLane="G10G11_0" arrivalPos="485.60" arrivalSpeed="13.89" duration="436.00" routeLength="5970.77" waitingTime="0.00" waitingCount="0" stopTime="0.00" timeLoss="5.23" rerouteNo="0" devices="tripinfo_39" vType="DEFAULT_VEHTYPE" speedFactor="1.00" vaporized=""/>
    <tripinfo id="66" depart="83.00" departLane="U7T7_0" departPos="5.10" departSpeed="0.00" departDelay="0.85" arrival="490.00" arrivalLane="W1X1_0" arrivalPos="485.60" arrivalSpeed="13.89" duration="407.00" routeLength="5465.20" waitingTime="0.00" waitingCount="0" stopTime="0.00" timeLoss="10.53" rerouteNo="0" devices="tripinfo_66" vType="DEFAULT_VEHTYPE" speedFactor="1.00" vaporized=""/>
    <tripinfo id="70" depart="88.00" departLane="L19K19_0" departPos="5.10" departSpeed="0.00" departDelay="0.87" arrival="494.00" arrivalLane="N13M13_0" arrivalPos="485.60" arrivalSpeed="13.89" duration="406.00" routeLength="5460.03" waitingTime="0.00" waitingCount="0" stopTime="0.00" timeLoss="10.28" rerouteNo="0" devices="tripinfo_70" vType="DEFAULT_VEHTYPE" speedFactor="1.00" vaporized=""/>
    <tripinfo id="14" depart="18.00" departLane="U13T13_0" departPos="5.10" departSpeed="0.00" departDelay="0.57" arrival="499.00" arrivalLane="O19O20_0" arrivalPos="485.60" arrivalSpeed="13.89" duration="481.00" routeLength="6475.13" waitingTime="1.00" waitingCount="1" stopTime="0.00" timeLoss="13.67" rerouteNo="0" devices="tripinfo_14" vType="DEFAULT_VEHTYPE" speedFactor="1.00" vaporized=""/>
    <tripinfo id="131" depart="164.00" departLane="I8I7_0" departPos="5.10" departSpeed="0.00" departDelay="0.94" arrival="499.00" arrivalLane="D9C9_0" arrivalPos="485.60" arrivalSpeed="13.89" duration="335.00" routeLength="4469.56" waitingTime="0.00" waitingCount="0" stopTime="0.00" timeLoss="10.39" rerouteNo="0" devices="tripinfo_131" vType="DEFAULT_VEHTYPE" speedFactor="1.00" vaporized=""/>
    <tripinfo id="22" depart="28.00" departLane="C12C11_0" departPos="5.10" departSpeed="0.00" departDelay="0.62" arrival="505.00" arrivalLane="F3F4_0" arrivalPos="485.60" arrivalSpeed="13.89" duration="477.00" routeLength="6480.09" waitingTime="0.00" waitingCount="0" stopTime="0.00" timeLoss="8.85" rerouteNo="0" devices="tripinfo_22" vType="DEFAULT_VEHTYPE" speedFactor="1.00" vaporized=""/>
    <tripinfo id="111" depart="139.00" departLane="M9N9_0" departPos="5.10" departSpeed="0.00" departDelay="0.83" arrival="509.00" arrivalLane="R5S5_0" arrivalPos="485.60" arrivalSpeed="13.89" duration="370.00" routeLength="4974.93" waitingTime="0.00" waitingCount="0" stopTime="0.00" timeLoss="9.53" rerouteNo="0" devices="tripinfo_111" vType="DEFAULT_VEHTYPE" speedFactor="1.00" vaporized=""/>
    <tripinfo id="119" depart="149.00" departLane="O14O13_0" departPos="5.10" departSpeed="0.00" departDelay="0.87" arrival="510.00" arrivalLane="O5O4_0" arrivalPos="485.60" arrivalSpeed="13.89" duration="361.00" routeLength="4980.50" waitingTime="0.00" waitingCount="0" stopTime="0.00" timeLoss="2.19" rerouteNo="0" devices="tripinfo_119" vType="DEFAULT_VEHTYPE" speedFactor="1.00" vaporized=""/>
    <tripinfo id="171" depart="213.00" departLane="A4A3_0" departPos="5.10" departSpeed="0.00" departDelay="0.15" arrival="513.00" arrivalLane="E5D5_0" arrivalPos="485.60" arrivalSpeed="13.89" duration="300.00" routeLength="3955.67" waitingTime="0.00" waitingCount="0" stopTime="0.00" timeLoss="12.29" rerouteNo="0" devices="tripinfo_171" vType="DEFAULT_VEHTYPE" speedFactor="1.00" vaporized=""/>
    <tripinfo id="88" depart="110.00" departLane="C20D20_0" departPos="5.10" departSpeed="0.00" departDelay="0.46" arrival="518.00" arrivalLane="K18J18_0" arrivalPos="485.60" arrivalSpeed="13.89" duration="408.00" routeLength="5469.76" waitingTime="0.00" waitingCount="0" stopTime="0.00" timeLoss="12.32" rerouteNo="0" devices="tripinfo_88" vType="DEFAULT_VEHTYPE" speedFactor="1.00" vaporized=""/>
    <tripinfo id="60" depart="75.00" departLane="S13R13_0" departPos="5.10" departSpeed="0.00" departDelay="0.31" arrival="519.00" arrivalLane="M8L8_0" arrivalPos="485.60" arrivalSpeed="13.89" duration="444.00" routeLength="5974.92" waitingTime="0.00" waitingCount="0" stopTime="0.00" timeLoss="12.05" rerouteNo="0" devices="tripinfo_60" vType="DEFAULT_VEHTYPE" speedFactor="1.00" vaporized=""/>
    <tripinfo id="151" depart="188.00" departLane="T6T7_0" departPos="5.10" departSpeed="0.00" departDelay="0.04" arrival="522.00" arrivalLane="N8N9_0" arrivalPos="485.60" arrivalSpeed="13.89" duration="334.00" routeLength="4474.93" waitingTime="0.00" waitingCount="0" stopTime="0.00" timeLoss="10.02" rerouteNo="0" devices="tripinfo_151" vType="DEFAULT_VEHTYPE" speedFactor="1.00" vaporized=""/>
    <tripinfo id="5" depart="7.00" departLane="F18F17_0" departPos="5.10" departSpeed="0.00" departDelay="0.78" arrival="523.00" arrivalLane="M12L12_0" arrivalPos="485.60" arrivalSpeed="13.89" duration="516.00" routeLength="6970.57" waitingTime="0.00" waitingCount="0" stopTime="0.00" timeLoss="11.84" rerouteNo="0" devices="tripinfo_5" vType="DEFAULT_VEHTYPE" speedFactor="1.00" vaporized=""/>
    <tripinfo id="10" depart="13.00" departLane="T13T14_0" departPos="5.10" departSpeed="0.00" departDelay="0.55" arrival="523.00" arrivalLane="Q23R23_0" arrivalPos="485.60" arrivalSpeed="13.89" duration="510.00" routeLength="6970.56" waitingTime="0.00" waitingCount="0" stopTime="0.00" timeLoss="6.43" rerouteNo="0" devices="tripinfo_10" vType="DEFAULT_VEHTYPE" speedFactor="1.00" vaporized=""/>
    <tripinfo id="94" depart="118.00" departLane="E3E2_0" departPos="5.10" departSpeed="0.00" departDelay="0.99" arrival="528.00" arrivalLane="K5J5_0" arrivalPos="485.60" arrivalSpeed="13.89" duration="410.00" routeLength="5455.67" waitingTime="0.00" waitingCount="0" stopTime="0.00" timeLoss="14.29" rerouteNo="0" devices="tripinfo_94" vType="DEFAULT_VEHTYPE" speedFactor="1.00" vaporized=""/>
    <tripinfo id="11" depart="14.00" departLane="I15H15_0" departPos="5.10" departSpeed="0.00" departDelay="0.31" arrival="529.00" arrivalLane="D7E7_0" arrivalPos="485.60" arrivalSpeed="13.89" duration="515.00" routeLength="6965.19" waitingTime="0.00" waitingCount="0" stopTime="0.00" timeLoss="10.48" rerouteNo="0" devices="tripinfo_11" vType="DEFAULT_VEHTYPE" speedFactor="1.00" vaporized=""/>
    <tripinfo id="161" depart="201.00" departLane="T16T15_0" departPos="5.10" departSpeed="0.00" departDelay="0.59" arrival="531.00" arrivalLane="U9T9_0" arrivalPos="485.60" arrivalSpeed="13.89" duration="330.00" routeLength="4470.57" waitingTime="0.00" waitingCount="0" stopTime="0.00" timeLoss="6.61" rerouteNo="0" devices="tripinfo_161" vType="DEFAULT_VEHTYPE" speedFactor="1.00" vaporized=""/>
    <tripinfo id="77" depart="96.00" departLane="D11D12_0" departPos="5.10" departSpeed="0.00" departDelay="0.15" arrival="533.00" arrivalLane="F20G20_0" arrivalPos="485.60" arrivalSpeed="13.89" duration="437.00" routeLength="5975.13" waitingTime="0.00" waitingCount="0" stopTime="0.00" timeLoss="5.82" rerouteNo="0" devices="tripinfo_77" vType="DEFAULT_VEHTYPE" speedFactor="1.00" vaporized=""/>
    <tripinfo id="158" depart="197.00" departLane="J5J4_0" departPos="5.10" departSpeed="0.00" departDelay="0.33" arrival="534.00" arrivalLane="O6N6_0" arrivalPos="485.60" arrivalSpeed="13.89" duration="337.00" routeLength="4455.67" waitingTime="0.00" waitingCount="0" stopTime="0.00" timeLoss="13.28" rerouteNo="0" devices="tripinfo_158" vType="DEFAULT_VEHTYPE" speedFactor="1.00" vaporized=""/>
    <tripinfo id="133" depart="166.00" departLane="O22P22_0" departPos="5.10" departSpeed="0.00" departDelay="0.45" arrival="538.00" arrivalLane="X22W22_0" arrivalPos="485.60" arrivalSpeed="13.89" duration="372.00" routeLength="4970.77" waitingTime="0.00" waitingCount="0" stopTime="0.00" timeLoss="12.47" rerouteNo="0" devices="tripinfo_133" vType="DEFAULT_VEHTYPE" speedFactor="1.00" vaporized=""/>
    <tripinfo id="108" depart="135.00" departLane="N16N17_0" departPos="5.10" departSpeed="0.00" departDelay="0.57" arrival="539.00" arrivalLane="R12R11_0" arrivalPos="485.60" arrivalSpeed="13.89" duration="404.00" routeLength="5469.76" waitingTime="0.00" waitingCount="0" stopTime="0.00" timeLoss="8.52" rerouteNo="0" devices="tripinfo_108" vType="DEFAULT_VEHTYPE" speedFactor="1.00" vaporized=""/>
    <tripinfo id="19" depart="24.00" departLane="U1V1_0" departPos="5.10" departSpeed="0.00" departDelay="0.35" arrival="541.00" arrivalLane="N5N6_0" arrivalPos="485.60" arrivalSpeed="13.89" duration="517.00" routeLength="6965.40" waitingTime="0.00" waitingCount="0" stopTime="0.00" timeLoss="13.64" rerouteNo="0" devices="tripinfo_19" vType="DEFAULT_VEHTYPE" speedFactor="1.00" vaporized=""/>
    <tripinfo id="261" depart="325.00" departLane="P20P21_0" departPos="5.10" departSpeed="0.00" departDelay="0.12" arrival="548.00" arrivalLane="S22S21_0" arrivalPos="485.60" arrivalSpeed="13.89" duration="223.00" routeLength="2969.76" waitingTime="0.00" waitingCount="0" stopTime="0.00" timeLoss="7.50" rerouteNo="0" devices="tripinfo_261" vType="DEFAULT_VEHTYPE" speedFactor="1.00" vaporized=""/>
    <tripinfo id="117" depart="146.00" departLane="F4G4_0" departPos="5.10" departSpeed="0.00" departDelay="0.36" arrival="552.00" arrivalLane="D10E10_0" arrivalPos="485.60" arrivalSpeed="13.89" duration="406.00" routeLength="5460.03" waitingTime="0.00" waitingCount="0" stopTime="0.00" timeLoss="10.28" rerouteNo="0" devices="tripinfo_117" vType="DEFAULT_VEHTYPE" speedFactor="1.00" vaporized=""/>
    <tripinfo id="204" depart="255.00" departLane="P12O12_0" departPos="5.10" departSpeed="0.00" departDelay="1.07" arrival="553.00" arrivalLane="I12I11_0" arrivalPos="485.60" arrivalSpeed="13.89" duration="298.00" routeLength="3980.29" waitingTime="0.00" waitingCount="0" stopTime="0.00" timeLoss="10.35" rerouteNo="0" devices="tripinfo_204" vType="DEFAULT_VEHTYPE" speedFactor="1.00" vaporized=""/>
    <tripinfo id="239" depart="298.00" departLane="U18T18_0" departPos="5.10" departSpeed="0.00" departDelay="0.50" arrival="557.00" arrivalLane="S14T14_0" arrivalPos="485.60" arrivalSpeed="13.89" duration="259.00" routeLength="3465.19" waitingTime="0.00" waitingCount="0" stopTime="0.00" timeLoss="7.35" rerouteNo="0" devices="tripinfo_239" vType="DEFAULT_VEHTYPE" speedFactor="1.00" vaporized=""/>
    <tripinfo id="154" depart="192.00" departLane="S8T8_0" departPos="5.10" departSpeed="0.00" departDelay="0.31" arrival="558.00" arrivalLane="U1U0_0" arrivalPos="485.60" arrivalSpeed="13.89" duration="366.00" routeLength="4975.13" waitingTime="0.00" waitingCount="0" stopTime="0.00" timeLoss="6.48" rerouteNo="0" devices="tripinfo_154" vType="DEFAULT_VEHTYPE" speedFactor="1.00" vaporized=""/>
    <tripinfo id="210" depart="262.00" departLane="J9K9_0" departPos="5.10" departSpeed="0.00" departDelay="0.60" arrival="558.00" arrivalLane="P10P11_0" arrivalPos="485.60" arrivalSpeed="13.89" duration="296.00" routeLength="3980.29" waitingTime="0.00" waitingCount="0" stopTime="0.00" timeLoss="8.34" rerouteNo="0" devices="tripinfo_210" vType="DEFAULT_VEHTYPE" speedFactor="1.00" vaporized=""/>
    <tripinfo id="128" depart="160.00" departLane="B9B10_0" departPos="5.10" departSpeed="0.00" departDelay="0.67" arrival="564.00" arrivalLane="F15F14_0" arrivalPos="485.60" arrivalSpeed="13.89" duration="404.00" routeLength="5469.76" waitingTime="0.00" waitingCount="0" stopTime="0.00" timeLoss="8.54" rerouteNo="0" devices="tripinfo_128" vType="DEFAULT_VEHTYPE" speedFactor="1.00" vaporized=""/>
    <tripinfo id="49" depart="61.00" departLane="X11X10_0" departPos="5.10" departSpeed="0.00" departDelay="0.01" arrival="572.00" arrivalLane="U1U0_0" arrivalPos="485.60" arrivalSpeed="13.89" duration="511.00" routeLength="6974.92" waitingTime="0.00" waitingCount="0" stopTime="0.00" timeLoss="7.20" rerouteNo="0" devices="tripinfo_49" vType="DEFAULT_VEHTYPE" speedFactor="1.00" vaporized=""/>
    <tripinfo id="251" depart="313.00" departLane="J20I20_0" departPos="5.10" departSpeed="0.00" departDelay="0.56" arrival="575.00" arrivalLane="N20N19_0" arrivalPos="485.60" arrivalSpeed="13.89" duration="262.00" routeLength="3465.40" waitingTime="0.00" waitingCount="0" stopTime="0.00" timeLoss="10.63" rerouteNo="0" devices="tripinfo_251" vType="DEFAULT_VEHTYPE" speedFactor="1.00" vaporized=""/>
    <tripinfo id="258" depart="322.00" departLane="G13G14_0" departPos="5.10" departSpeed="0.00" departDelay="0.85" arrival="585.00" arrivalLane="C13C12_0" arrivalPos="485.60" arrivalSpeed="13.89" duration="263.00" routeLength="3465.19" waitingTime="0.00" waitingCount="0" stopTime="0.00" timeLoss="11.17" rerouteNo="0" devices="tripinfo_258" vType="DEFAULT_VEHTYPE" speedFactor="1.00" vaporized=""/>
    <tripinfo id="92" depart="115.00" departLane="J3I3_0" departPos="5.10" departSpeed="0.00" departDelay="0.48" arrival="586.00" arrivalLane="I14I15_0" arrivalPos="485.60" arrivalSpeed="13.89" duration="471.00" routeLength="6475.13" waitingTime="0.00" waitingCount="0" stopTime="0.00" timeLoss="3.72" rerouteNo="0" devices="tripinfo_92" vType="DEFAULT_VEHTYPE" speedFactor="1.00" vaporized=""/>
    <tripinfo id="205" depart="256.00" departLane="T1T2_0" departPos="5.10" departSpeed="0.00" departDelay="0.82" arrival="586.00" arrivalLane="R7R8_0" arrivalPos="485.60" arrivalSpeed="13.89" duration="330.00" routeLength="4474.93" waitingTime="0.00" waitingCount="0" stopTime="0.00" timeLoss="5.98" rerouteNo="0" devices="tripinfo_205" vType="DEFAULT_VEHTYPE" speedFactor="1.00" vaporized=""/>
    <tripinfo id="62" depart="78.00" departLane="A0B0_0" departPos="5.10" departSpeed="0.00" departDelay="0.82" arrival="587.00" arrivalLane="H6I6_0" arrivalPos="485.60" arrivalSpeed="13.89" duration="509.00" routeLength="6978.93" waitingTime="0.00" waitingCount="0" stopTime="0.00" timeLoss="4.60" rerouteNo="0" devices="tripinfo_62" vType="DEFAULT_VEHTYPE" speedFactor="1.00" vaporized=""/>